 argument  1 = bh3_aug-cc-pvdz.inp
                                         
                                         


             Northwest Computational Chemistry Package (NWChem) 7.0.0
             --------------------------------------------------------


                    Environmental Molecular Sciences Laboratory
                       Pacific Northwest National Laboratory
                                Richland, WA 99352

                              Copyright (c) 1994-2019
                       Pacific Northwest National Laboratory
                            Battelle Memorial Institute

             NWChem is an open-source computational chemistry package
                        distributed under the terms of the
                      Educational Community License (ECL) 2.0
             A copy of the license is included with this distribution
                              in the LICENSE.TXT file

                                  ACKNOWLEDGMENT
                                  --------------

            This software and its documentation were developed at the
            EMSL at Pacific Northwest National Laboratory, a multiprogram
            national laboratory, operated for the U.S. Department of Energy
            by Battelle under Contract Number DE-AC05-76RL01830. Support
            for this work was provided by the Department of Energy Office
            of Biological and Environmental Research, Office of Basic
            Energy Sciences, and the Office of Advanced Scientific Computing.


           Job information
           ---------------

    hostname        = Amanda-Dewyers-MacBook-Air.local
    program         = nwchem
    date            = Fri Sep 11 16:52:01 2020

    compiled        = Fri_Jul_03_06:05:09_2020
    source          = /private/tmp/nwchem-20200703-71421-tc8c0i/nwchem-7.0.0
    nwchem branch   = 7.0.0
    nwchem revision = 2c9a1c7c
    ga revision     = 5.7.1
    use scalapack   = T
    input           = bh3_aug-cc-pvdz.inp
    prefix          = bh3_aug-cc-pvdz.
    data base       = ./bh3_aug-cc-pvdz.db
    status          = startup
    nproc           =        1
    time left       =     -1s



           Memory information
           ------------------

    heap     =   13107196 doubles =    100.0 Mbytes
    stack    =   13107201 doubles =    100.0 Mbytes
    global   =   26214400 doubles =    200.0 Mbytes (distinct from heap & stack)
    total    =   52428797 doubles =    400.0 Mbytes
    verify   = yes
    hardfail = no 


           Directory information
           ---------------------

  0 permanent = .
  0 scratch   = .




                                NWChem Input Module
                                -------------------


                                     test case
                                     ---------
 D3H symmetry detected

          ------
          auto-z
          ------
  Looking for out-of-plane bends
  no constraints, skipping    0.0000000000000000     
  no constraints, skipping    0.0000000000000000     


                             Geometry "geometry" -> ""
                             -------------------------

 Output coordinates in a.u. (scale by  1.000000000 to convert to a.u.)

  No.       Tag          Charge          X              Y              Z
 ---- ---------------- ---------- -------------- -------------- --------------
    1 B                    5.0000     0.00000000     0.00000000     0.00000000
    2 H                    1.0000     0.83517244     0.83517244     0.00000000
    3 H                    1.0000     0.30569433    -1.14086677     0.00000000
    4 H                    1.0000    -1.14086677     0.30569433     0.00000000

      Atomic Mass 
      ----------- 

      B                 11.009310
      H                  1.007825


 Effective nuclear repulsion energy (a.u.)      14.1663517928

            Nuclear Dipole moment (a.u.) 
            ----------------------------
        X                 Y               Z
 ---------------- ---------------- ----------------
    -0.0000000000    -0.0000000000     0.0000000000

      Symmetry information
      --------------------

 Group name             D3h       
 Group number             27
 Group order              12
 No. of unique centers     2

      Symmetry unique atoms

     1    2



                                Z-matrix (autoz)
                                -------- 

 Units are Angstrom for bonds and degrees for angles

      Type          Name      I     J     K     L     M      Value
      ----------- --------  ----- ----- ----- ----- ----- ----------
    1 Stretch                  1     2                       0.62502
    2 Stretch                  1     3                       0.62502
    3 Stretch                  1     4                       0.62502
    4 Bend                     2     1     3               120.00000
    5 Bend                     2     1     4               120.00000
    6 Bend                     3     1     4               120.00000
    7 Torsion                  2     1     3     4         180.00000
    8 Torsion                  2     1     4     3         180.00000
    9 Torsion                  3     1     2     4         180.00000
   10 Torsion                  2     4     1     3         180.00000
   11 Torsion                  3     2     1     4         180.00000
   12 Torsion                  2     3     1     4         180.00000


            XYZ format geometry
            -------------------
     4
 geometry
 B                     0.00000000     0.00000000     0.00000000
 H                     0.44195425     0.44195425     0.00000000
 H                     0.16176648    -0.60372074     0.00000000
 H                    -0.60372074     0.16176648     0.00000000

 ==============================================================================
                                internuclear distances
 ------------------------------------------------------------------------------
       center one      |      center two      | atomic units |       a.u.
 ------------------------------------------------------------------------------
    2 H                |   1 B                |     1.18111  |     1.18111
    3 H                |   1 B                |     1.18111  |     1.18111
    4 H                |   1 B                |     1.18111  |     1.18111
 ------------------------------------------------------------------------------
                         number of included internuclear distances:          3
 ==============================================================================



 ==============================================================================
                                 internuclear angles
 ------------------------------------------------------------------------------
        center 1       |       center 2       |       center 3       |  degrees
 ------------------------------------------------------------------------------
    2 H                |   1 B                |   3 H                |   120.00
    2 H                |   1 B                |   4 H                |   120.00
    3 H                |   1 B                |   4 H                |   120.00
 ------------------------------------------------------------------------------
                            number of included internuclear angles:          3
 ==============================================================================



  library name resolved from: .nwchemrc
  library file name is: </usr/local/Cellar/nwchem/7.0.0_2/share/nwchem/libraries/>
  


 Summary of "ao basis" -> "" (cartesian)
 ------------------------------------------------------------------------------
       Tag                 Description            Shells   Functions and Types
 ---------------- ------------------------------  ------  ---------------------
 *                        aug-cc-pvdz                 on all atoms 



                                 NWChem DFT Module
                                 -----------------


                                     test case


                      Basis "ao basis" -> "ao basis" (cartesian)
                      -----
  B (Boron)
  ---------
            Exponent  Coefficients 
       -------------- ---------------------------------------------------------
  1 S  4.57000000E+03  0.000696
  1 S  6.85900000E+02  0.005353
  1 S  1.56500000E+02  0.027134
  1 S  4.44700000E+01  0.101380
  1 S  1.44800000E+01  0.272055
  1 S  5.13100000E+00  0.448403
  1 S  1.89800000E+00  0.290123
  1 S  3.32900000E-01  0.014322

  2 S  4.57000000E+03 -0.000139
  2 S  6.85900000E+02 -0.001097
  2 S  1.56500000E+02 -0.005444
  2 S  4.44700000E+01 -0.021916
  2 S  1.44800000E+01 -0.059751
  2 S  5.13100000E+00 -0.138732
  2 S  1.89800000E+00 -0.131482
  2 S  3.32900000E-01  0.539526

  3 S  1.04300000E-01  1.000000

  4 S  3.10500000E-02  1.000000

  5 P  6.00100000E+00  0.035481
  5 P  1.24100000E+00  0.198072
  5 P  3.36400000E-01  0.505230

  6 P  9.53800000E-02  1.000000

  7 P  2.37800000E-02  1.000000

  8 D  3.43000000E-01  1.000000

  9 D  9.04000000E-02  1.000000

  H (Hydrogen)
  ------------
            Exponent  Coefficients 
       -------------- ---------------------------------------------------------
  1 S  1.30100000E+01  0.019685
  1 S  1.96200000E+00  0.137977
  1 S  4.44600000E-01  0.478148

  2 S  1.22000000E-01  1.000000

  3 S  2.97400000E-02  1.000000

  4 P  7.27000000E-01  1.000000

  5 P  1.41000000E-01  1.000000



 Summary of "ao basis" -> "ao basis" (cartesian)
 ------------------------------------------------------------------------------
       Tag                 Description            Shells   Functions and Types
 ---------------- ------------------------------  ------  ---------------------
 B                        aug-cc-pvdz                9       25   4s3p2d
 H                        aug-cc-pvdz                5        9   3s2p




 Summary of "ao basis" -> "ao basis" (cartesian)
 ------------------------------------------------------------------------------
       Tag                 Description            Shells   Functions and Types
 ---------------- ------------------------------  ------  ---------------------
 B                        aug-cc-pvdz                9       25   4s3p2d
 H                        aug-cc-pvdz                5        9   3s2p


      Symmetry analysis of basis
      --------------------------

        a1'        13
        a1"         0
        a2'         2
        a2"         5
        e'         24
        e"          8

  Caching 1-el integrals 
  Rotation of axis 

            General Information
            -------------------
          SCF calculation type: DFT
          Wavefunction type:  closed shell.
          No. of atoms     :     4
          No. of electrons :     8
           Alpha electrons :     4
            Beta electrons :     4
          Charge           :     0
          Spin multiplicity:     1
          Use of symmetry is: on ; symmetry adaption is: on 
          Maximum number of iterations:  30
          AO basis - number of functions:    52
                     number of shells:    24
          Convergence on energy requested:  1.00D-06
          Convergence on density requested:  1.00D-05
          Convergence on gradient requested:  5.00D-04

              XC Information
              --------------
                         B3LYP Method XC Potential
                     Hartree-Fock (Exact) Exchange  0.200          
                        Slater Exchange Functional  0.800 local    
                    Becke 1988 Exchange Functional  0.720 non-local
              Lee-Yang-Parr Correlation Functional  0.810          
                  VWN I RPA Correlation Functional  0.190 local    

             Grid Information
             ----------------
          Grid used for XC integration:  medium    
          Radial quadrature: Mura-Knowles        
          Angular quadrature: Lebedev. 
          Tag              B.-S. Rad. Rad. Pts. Rad. Cut. Ang. Pts.
          ---              ---------- --------- --------- ---------
          B                   0.85       49          11.0       434
          H                   0.35       45          11.0       434
          Grid pruning is: on 
          Number of quadrature shells:    94
          Spatial weights used:  Erf1

          Convergence Information
          -----------------------
          Convergence aids based upon iterative change in 
          total energy or number of iterations. 
          Levelshifting, if invoked, occurs when the 
          HOMO/LUMO gap drops below (HL_TOL):  1.00D-02
          DIIS, if invoked, will attempt to extrapolate 
          using up to (NFOCK): 10 stored Fock matrices.

                    Damping( 0%)  Levelshifting(0.5)       DIIS
                  --------------- ------------------- ---------------
          dE  on:    start            ASAP                start   
          dE off:    2 iters         30 iters            30 iters 


      Screening Tolerance Information
      -------------------------------
          Density screening/tol_rho:  1.00D-10
          AO Gaussian exp screening on grid/accAOfunc:  14
          CD Gaussian exp screening on grid/accCDfunc:  20
          XC Gaussian exp screening on grid/accXCfunc:  20
          Schwarz screening/accCoul:  1.00D-08


 WARNING : Found     1 linear dependencies 
 S eigenvalue threshold:     1.00000E-05
 Smallest S eigenvalue :     8.73391E-06
 Largest  S eigenvalue :     8.73391E-06


 !! The overlap matrix has   1 vectors deemed linearly dependent with
    eigenvalues:
 8.73D-06


      Superposition of Atomic Density Guess
      -------------------------------------

 Sum of atomic energies:         -26.03113664

      Non-variational initial energy
      ------------------------------

 Total energy =     -26.418672
 1-e energy   =     -56.796108
 2-e energy   =      16.211084
 HOMO         =      -0.669280
 LUMO         =      -0.222357


      Symmetry analysis of molecular orbitals - initial
      -------------------------------------------------

  Numbering of irreducible representations: 

     1 a1'         2 a1"         3 a2'         4 a2"         5 e'      
     6 e"      

  Orbital symmetries:

     1 a1'         2 a1'         3 e'          4 e'          5 a2"     
     6 a1'         7 e'          8 e'          9 a2"        10 e'      
    11 e'         12 a1'        13 e'         14 e'      

   Time after variat. SCF:      0.1
   Time prior to 1st pass:      0.1

 Integral file          = ./bh3_aug-cc-pvdz.aoints.0
 Record size in doubles =  65536        No. of integs per rec  =  43688
 Max. records in memory =      5        Max. records in file   = 183605
 No. of bits per label  =      8        No. of bits per value  =     64


 #quartets = 1.356D+04 #integrals = 1.631D+05 #direct =  0.0% #cached =100.0%


 Grid_pts file          = ./bh3_aug-cc-pvdz.gridpts.0
 Record size in doubles =  12289        No. of grid_pts per rec  =   3070
 Max. records in memory =     16        Max. recs in file   =    979155

 Grid integrated density:       7.999985229490
 Requested integration accuracy:   0.10E-05

           Memory utilization after 1st SCF pass: 
           Heap Space remaining (MW):       12.58            12580588
          Stack Space remaining (MW):       13.11            13106780

   convergence    iter        energy       DeltaE   RMS-Dens  Diis-err    time
 ---------------- ----- ----------------- --------- --------- ---------  ------
 d= 0,ls=0.0,diis     1    -25.2290349057 -3.94D+01  2.12D-01  9.35D-02     0.4
 Grid integrated density:       7.999985430434
 Requested integration accuracy:   0.10E-05
 d= 0,ls=0.0,diis     2    -25.2357994124 -6.76D-03  6.33D-02  8.54D-03     0.4
 Grid integrated density:       7.999985313168
 Requested integration accuracy:   0.10E-05
 d= 0,ls=0.0,diis     3    -25.2367894861 -9.90D-04  1.25D-02  4.37D-04     0.5
 Grid integrated density:       7.999985335318
 Requested integration accuracy:   0.10E-05
 d= 0,ls=0.0,diis     4    -25.2368509191 -6.14D-05  9.15D-04  1.60D-06     0.6
 Grid integrated density:       7.999985334165
 Requested integration accuracy:   0.10E-05
 d= 0,ls=0.0,diis     5    -25.2368510270 -1.08D-07  4.22D-05  9.31D-07     0.7
 Grid integrated density:       7.999985334154
 Requested integration accuracy:   0.10E-05
 d= 0,ls=0.0,diis     6    -25.2368510270 -3.63D-11  5.19D-07  9.31D-07     0.8


         Total DFT energy =      -25.236851027019
      One electron energy =      -58.891732572842
           Coulomb energy =       25.288136549200
    Exchange-Corr. energy =       -5.799606796188
 Nuclear repulsion energy =       14.166351792812

 Numeric. integr. density =        7.999985334154

     Total iterative time =      0.6s



                  Occupations of the irreducible representations
                  ----------------------------------------------

                     irrep           alpha         beta
                     --------     --------     --------
                     a1'               2.0          2.0
                     a1"               0.0          0.0
                     a2'               0.0          0.0
                     a2"               0.0          0.0
                     e'                2.0          2.0
                     e"                0.0          0.0


                       DFT Final Molecular Orbital Analysis
                       ------------------------------------

 Vector    1  Occ=2.000000D+00  E=-6.793335D+00  Symmetry=a1'
              MO Center=  2.8D-16,  2.0D-16,  1.1D-21, r^2= 4.2D-02
   Bfn.  Coefficient  Atom+Function         Bfn.  Coefficient  Atom+Function  
  ----- ------------  ---------------      ----- ------------  ---------------
     1      0.969855  1 B  s                  4     -0.061475  1 B  s          
     2     -0.027898  1 B  s          

 Vector    2  Occ=2.000000D+00  E=-5.971505D-01  Symmetry=a1'
              MO Center= -1.6D-16, -2.1D-16, -1.7D-33, r^2= 9.1D-01
   Bfn.  Coefficient  Atom+Function         Bfn.  Coefficient  Atom+Function  
  ----- ------------  ---------------      ----- ------------  ---------------
     4      2.407505  1 B  s                 28     -0.711697  2 H  s          
    37     -0.711697  3 H  s                 46     -0.711697  4 H  s          
     3     -0.543026  1 B  s                 26     -0.331373  2 H  s          
    35     -0.331373  3 H  s                 44     -0.331373  4 H  s          
     2     -0.275870  1 B  s                  1      0.196917  1 B  s          

 Vector    3  Occ=2.000000D+00  E=-4.399469D-01  Symmetry=e'
              MO Center= -8.7D-02, -1.1D-01, -2.0D-16, r^2= 8.6D-01
   Bfn.  Coefficient  Atom+Function         Bfn.  Coefficient  Atom+Function  
  ----- ------------  ---------------      ----- ------------  ---------------
    36      2.425750  3 H  s                 45     -2.270139  4 H  s          
    37      0.983588  3 H  s                 46     -0.920491  4 H  s          
     9      0.826244  1 B  py                 8     -0.736546  1 B  px         
     6      0.455898  1 B  py                35     -0.454356  3 H  s          
    44      0.425209  4 H  s                  5     -0.406406  1 B  px         

 Vector    4  Occ=2.000000D+00  E=-4.399469D-01  Symmetry=e'
              MO Center=  8.7D-02,  1.1D-01, -2.3D-16, r^2= 8.6D-01
   Bfn.  Coefficient  Atom+Function         Bfn.  Coefficient  Atom+Function  
  ----- ------------  ---------------      ----- ------------  ---------------
    27      2.711173  2 H  s                 45     -1.490349  4 H  s          
    36     -1.220824  3 H  s                 28      1.099321  2 H  s          
     8     -0.826244  1 B  px                 9     -0.736546  1 B  py         
    46     -0.604304  4 H  s                 26     -0.507817  2 H  s          
    37     -0.495017  3 H  s                  5     -0.455898  1 B  px         

 Vector    5  Occ=0.000000D+00  E=-7.913039D-02  Symmetry=a2"
              MO Center= -1.1D-15,  6.1D-16,  2.3D-15, r^2= 2.3D+00
   Bfn.  Coefficient  Atom+Function         Bfn.  Coefficient  Atom+Function  
  ----- ------------  ---------------      ----- ------------  ---------------
     7      0.569190  1 B  pz                10      0.530578  1 B  pz         
    13      0.138151  1 B  pz                34     -0.026419  2 H  pz         
    43     -0.026419  3 H  pz                52     -0.026419  4 H  pz         

 Vector    6  Occ=0.000000D+00  E= 7.309220D-03  Symmetry=a1'
              MO Center=  2.2D-15,  4.5D-15, -2.7D-15, r^2= 1.5D+01
   Bfn.  Coefficient  Atom+Function         Bfn.  Coefficient  Atom+Function  
  ----- ------------  ---------------      ----- ------------  ---------------
     4     13.929650  1 B  s                 28     -4.960208  2 H  s          
    37     -4.960208  3 H  s                 46     -4.960208  4 H  s          
     3     -3.173257  1 B  s                 27      1.016244  2 H  s          
    36      1.016244  3 H  s                 45      1.016244  4 H  s          
    42      0.132891  3 H  py                50      0.132891  4 H  px         

 Vector    7  Occ=0.000000D+00  E= 2.370114D-02  Symmetry=e'
              MO Center= -6.3D-01,  3.1D-01,  3.3D-15, r^2= 2.1D+01
   Bfn.  Coefficient  Atom+Function         Bfn.  Coefficient  Atom+Function  
  ----- ------------  ---------------      ----- ------------  ---------------
    37      7.279302  3 H  s                 28     -6.486207  2 H  s          
    12      3.143390  1 B  py                36      1.171605  3 H  s          
    27     -1.043956  2 H  s                 46     -0.793095  4 H  s          
     9      0.581628  1 B  py                11      0.514819  1 B  px         
    21      0.375555  1 B  dxy               51      0.164601  4 H  py         

 Vector    8  Occ=0.000000D+00  E= 2.370114D-02  Symmetry=e'
              MO Center=  6.3D-01, -3.1D-01, -1.1D-15, r^2= 2.1D+01
   Bfn.  Coefficient  Atom+Function         Bfn.  Coefficient  Atom+Function  
  ----- ------------  ---------------      ----- ------------  ---------------
    46      7.947521  4 H  s                 28     -4.660601  2 H  s          
    37     -3.286920  3 H  s                 11      3.143390  1 B  px         
    45      1.279155  4 H  s                 27     -0.750124  2 H  s          
     8      0.581628  1 B  px                36     -0.529030  3 H  s          
    12     -0.514819  1 B  py                21      0.269852  1 B  dxy        

 Vector    9  Occ=0.000000D+00  E= 4.607883D-02  Symmetry=a2"
              MO Center= -1.1D-15, -1.5D-15,  1.6D-15, r^2= 1.7D+01
   Bfn.  Coefficient  Atom+Function         Bfn.  Coefficient  Atom+Function  
  ----- ------------  ---------------      ----- ------------  ---------------
    13      1.188704  1 B  pz                10     -0.833934  1 B  pz         
     7     -0.264370  1 B  pz                34      0.156180  2 H  pz         
    43      0.156180  3 H  pz                52      0.156180  4 H  pz         

 Vector   10  Occ=0.000000D+00  E= 8.636646D-02  Symmetry=e'
              MO Center=  1.0D-01,  8.2D-02,  5.5D-28, r^2= 1.9D+01
   Bfn.  Coefficient  Atom+Function         Bfn.  Coefficient  Atom+Function  
  ----- ------------  ---------------      ----- ------------  ---------------
    28     22.194670  2 H  s                 37    -12.031702  3 H  s          
    46    -10.162968  4 H  s                 12     -4.244633  1 B  py         
    11     -3.851089  1 B  px                27      3.844651  2 H  s          
    36     -2.084181  3 H  s                  9     -1.793922  1 B  py         
    45     -1.760471  4 H  s                  8     -1.627598  1 B  px         

 Vector   11  Occ=0.000000D+00  E= 8.636646D-02  Symmetry=e'
              MO Center= -1.0D-01, -8.2D-02,  5.4D-16, r^2= 1.9D+01
   Bfn.  Coefficient  Atom+Function         Bfn.  Coefficient  Atom+Function  
  ----- ------------  ---------------      ----- ------------  ---------------
    46    -19.760605  4 H  s                 37     18.681691  3 H  s          
    11     -4.244633  1 B  px                12      3.851089  1 B  py         
    45     -3.423013  4 H  s                 36      3.236119  3 H  s          
     8     -1.793922  1 B  px                 9      1.627598  1 B  py         
    28      1.078914  2 H  s                 20      0.273863  1 B  dxx        

 Vector   12  Occ=0.000000D+00  E= 8.911887D-02  Symmetry=a1'
              MO Center= -9.6D-12,  1.1D-11,  9.7D-18, r^2= 1.7D+01
   Bfn.  Coefficient  Atom+Function         Bfn.  Coefficient  Atom+Function  
  ----- ------------  ---------------      ----- ------------  ---------------
     4     42.958294  1 B  s                 28    -13.548355  2 H  s          
    37    -13.548355  3 H  s                 46    -13.548355  4 H  s          
     3     -9.813804  1 B  s                 27      2.856077  2 H  s          
    36      2.856077  3 H  s                 45      2.856077  4 H  s          
    20     -0.566729  1 B  dxx               23     -0.566729  1 B  dyy        

 Vector   13  Occ=0.000000D+00  E= 1.740572D-01  Symmetry=e'
              MO Center= -6.7D-01,  1.1D-01,  2.7D-15, r^2= 7.6D+00
   Bfn.  Coefficient  Atom+Function         Bfn.  Coefficient  Atom+Function  
  ----- ------------  ---------------      ----- ------------  ---------------
    28      3.866565  2 H  s                 37     -3.662719  3 H  s          
    21     -2.768051  1 B  dxy               27      2.479918  2 H  s          
    36     -2.349176  3 H  s                 12     -1.443873  1 B  py         
    51     -1.184633  4 H  py                20     -0.714813  1 B  dxx        
    23      0.714813  1 B  dyy               41     -0.629390  3 H  px         

 Vector   14  Occ=0.000000D+00  E= 1.740572D-01  Symmetry=e'
              MO Center=  6.7D-01, -1.1D-01, -8.7D-30, r^2= 7.6D+00
   Bfn.  Coefficient  Atom+Function         Bfn.  Coefficient  Atom+Function  
  ----- ------------  ---------------      ----- ------------  ---------------
    46      4.347034  4 H  s                 45      2.788079  4 H  s          
    37     -2.350053  3 H  s                 28     -1.996981  2 H  s          
    36     -1.507265  3 H  s                 11      1.443873  1 B  px         
    21      1.429627  1 B  dxy               20     -1.384026  1 B  dxx        
    23      1.384026  1 B  dyy               27     -1.280813  2 H  s          

 Vector   15  Occ=0.000000D+00  E= 1.857772D-01  Symmetry=e"
              MO Center= -1.4D-01, -1.7D-01, -1.6D-15, r^2= 6.3D+00
   Bfn.  Coefficient  Atom+Function         Bfn.  Coefficient  Atom+Function  
  ----- ------------  ---------------      ----- ------------  ---------------
    22      1.941717  1 B  dxz               24      1.771808  1 B  dyz        
    34     -1.041233  2 H  pz                52      0.561875  4 H  pz         
    43      0.479358  3 H  pz                16      0.109943  1 B  dxz        
    18      0.100323  1 B  dyz        

 Vector   16  Occ=0.000000D+00  E= 1.857772D-01  Symmetry=e"
              MO Center=  1.4D-01,  1.7D-01, -3.5D-15, r^2= 6.3D+00
   Bfn.  Coefficient  Atom+Function         Bfn.  Coefficient  Atom+Function  
  ----- ------------  ---------------      ----- ------------  ---------------
    24     -1.941717  1 B  dyz               22      1.771808  1 B  dxz        
    43     -0.925554  3 H  pz                52      0.877914  4 H  pz         
    18     -0.109943  1 B  dyz               16      0.100323  1 B  dxz        
    34      0.047641  2 H  pz         

 Vector   17  Occ=0.000000D+00  E= 1.948141D-01  Symmetry=a1'
              MO Center= -3.9D-13, -1.1D-12, -1.1D-15, r^2= 7.5D+00
   Bfn.  Coefficient  Atom+Function         Bfn.  Coefficient  Atom+Function  
  ----- ------------  ---------------      ----- ------------  ---------------
     4      6.106123  1 B  s                 20     -1.654823  1 B  dxx        
    23     -1.654823  1 B  dyy               28     -1.367168  2 H  s          
    37     -1.367168  3 H  s                 46     -1.367168  4 H  s          
     3     -1.279333  1 B  s                 27      0.569962  2 H  s          
    36      0.569962  3 H  s                 45      0.569962  4 H  s          

 Vector   18  Occ=0.000000D+00  E= 2.732915D-01  Symmetry=e'
              MO Center= -5.8D-01, -3.5D-01, -7.9D-17, r^2= 1.1D+01
   Bfn.  Coefficient  Atom+Function         Bfn.  Coefficient  Atom+Function  
  ----- ------------  ---------------      ----- ------------  ---------------
    46     18.224433  4 H  s                 37    -15.867594  3 H  s          
    45     10.364499  4 H  s                 36     -9.024131  3 H  s          
     8      6.101799  1 B  px                 9     -4.796804  1 B  py         
    11      3.392872  1 B  px                12     -2.667237  1 B  py         
    28     -2.356840  2 H  s                 20     -1.455296  1 B  dxx        

 Vector   19  Occ=0.000000D+00  E= 2.732915D-01  Symmetry=e'
              MO Center=  5.8D-01,  3.5D-01,  3.7D-16, r^2= 1.1D+01
   Bfn.  Coefficient  Atom+Function         Bfn.  Coefficient  Atom+Function  
  ----- ------------  ---------------      ----- ------------  ---------------
    28     19.683041  2 H  s                 37    -11.882604  3 H  s          
    27     11.194031  2 H  s                 46     -7.800438  4 H  s          
    36     -6.757809  3 H  s                  9     -6.101799  1 B  py         
     8     -4.796804  1 B  px                45     -4.436222  4 H  s          
    12     -3.392872  1 B  py                21     -2.910591  1 B  dxy        

 Vector   20  Occ=0.000000D+00  E= 2.742927D-01  Symmetry=a2"
              MO Center=  1.0D-14,  9.5D-15,  1.8D-16, r^2= 7.8D+00
   Bfn.  Coefficient  Atom+Function         Bfn.  Coefficient  Atom+Function  
  ----- ------------  ---------------      ----- ------------  ---------------
    10      3.744413  1 B  pz                34     -0.993577  2 H  pz         
    43     -0.993577  3 H  pz                52     -0.993577  4 H  pz         
    13     -0.750502  1 B  pz                 7     -0.483304  1 B  pz         

 Vector   21  Occ=0.000000D+00  E= 2.876388D-01  Symmetry=a1'
              MO Center=  8.0D-12,  1.1D-11, -2.5D-16, r^2= 1.1D+01
   Bfn.  Coefficient  Atom+Function         Bfn.  Coefficient  Atom+Function  
  ----- ------------  ---------------      ----- ------------  ---------------
     4     45.541684  1 B  s                 28    -13.538725  2 H  s          
    37    -13.538725  3 H  s                 46    -13.538725  4 H  s          
     3    -10.586968  1 B  s                 27      2.912974  2 H  s          
    36      2.912974  3 H  s                 45      2.912974  4 H  s          
    25     -2.012210  1 B  dzz               20     -1.605818  1 B  dxx        

 Vector   22  Occ=0.000000D+00  E= 4.790437D-01  Symmetry=e'
              MO Center= -5.2D-02, -3.4D-01, -2.5D-17, r^2= 5.4D+00
   Bfn.  Coefficient  Atom+Function         Bfn.  Coefficient  Atom+Function  
  ----- ------------  ---------------      ----- ------------  ---------------
    27      7.035919  2 H  s                 28      6.530049  2 H  s          
    45     -5.511887  4 H  s                 21     -5.181256  1 B  dxy        
    46     -5.115593  4 H  s                  8     -2.664481  1 B  px         
    41     -2.666085  3 H  px                51     -2.079321  4 H  py         
    33      1.719530  2 H  py                11     -1.551728  1 B  px         

 Vector   23  Occ=0.000000D+00  E= 4.790437D-01  Symmetry=e'
              MO Center=  5.2D-02,  3.4D-01, -2.4D-15, r^2= 5.4D+00
   Bfn.  Coefficient  Atom+Function         Bfn.  Coefficient  Atom+Function  
  ----- ------------  ---------------      ----- ------------  ---------------
    36      7.244479  3 H  s                 37      6.723615  3 H  s          
    45     -4.942089  4 H  s                 46     -4.586763  4 H  s          
     9      2.664481  1 B  py                20      2.590628  1 B  dxx        
    23     -2.590628  1 B  dyy               27     -2.302389  2 H  s          
    32     -2.198866  2 H  px                28     -2.136852  2 H  s          

 Vector   24  Occ=0.000000D+00  E= 4.815839D-01  Symmetry=a2'
              MO Center= -1.2D-13, -7.7D-14, -1.6D-29, r^2= 4.7D+00
   Bfn.  Coefficient  Atom+Function         Bfn.  Coefficient  Atom+Function  
  ----- ------------  ---------------      ----- ------------  ---------------
    41      2.965775  3 H  px                51     -2.965775  4 H  py         
    32     -2.171098  2 H  px                33      2.171098  2 H  py         
    42      0.794677  3 H  py                50     -0.794677  4 H  px         

 Vector   25  Occ=0.000000D+00  E= 4.950313D-01  Symmetry=e"
              MO Center=  8.4D-02,  1.6D-01,  3.0D-16, r^2= 4.8D+00
   Bfn.  Coefficient  Atom+Function         Bfn.  Coefficient  Atom+Function  
  ----- ------------  ---------------      ----- ------------  ---------------
    34      4.051034  2 H  pz                22     -2.854755  1 B  dxz        
    52     -2.560241  4 H  pz                24     -2.099624  1 B  dyz        
    43     -1.490793  3 H  pz                16     -0.251800  1 B  dxz        
    18     -0.185194  1 B  dyz               31      0.085200  2 H  pz         
    49     -0.053846  4 H  pz                40     -0.031354  3 H  pz         

 Vector   26  Occ=0.000000D+00  E= 4.950313D-01  Symmetry=e"
              MO Center= -8.4D-02, -1.6D-01,  1.5D-15, r^2= 4.8D+00
   Bfn.  Coefficient  Atom+Function         Bfn.  Coefficient  Atom+Function  
  ----- ------------  ---------------      ----- ------------  ---------------
    43      3.817021  3 H  pz                52     -3.199575  4 H  pz         
    24      2.854755  1 B  dyz               22     -2.099624  1 B  dxz        
    34     -0.617446  2 H  pz                18      0.251800  1 B  dyz        
    16     -0.185194  1 B  dxz               40      0.080278  3 H  pz         
    49     -0.067292  4 H  pz         

 Vector   27  Occ=0.000000D+00  E= 4.954861D-01  Symmetry=a1'
              MO Center= -7.6D-14,  3.0D-12, -1.6D-17, r^2= 5.5D+00
   Bfn.  Coefficient  Atom+Function         Bfn.  Coefficient  Atom+Function  
  ----- ------------  ---------------      ----- ------------  ---------------
    20      2.342509  1 B  dxx               23      2.342509  1 B  dyy        
    42      2.191778  3 H  py                50      2.191778  4 H  px         
    32     -1.604493  2 H  px                33     -1.604493  2 H  py         
    27     -1.099818  2 H  s                 36     -1.099818  3 H  s          
    45     -1.099818  4 H  s                  4     -0.764138  1 B  s          

 Vector   28  Occ=0.000000D+00  E= 5.265922D-01  Symmetry=e'
              MO Center=  9.2D-02,  2.4D-02,  1.4D-17, r^2= 4.9D+00
   Bfn.  Coefficient  Atom+Function         Bfn.  Coefficient  Atom+Function  
  ----- ------------  ---------------      ----- ------------  ---------------
    27     24.674581  2 H  s                 36    -18.107119  3 H  s          
    33     -6.943390  2 H  py                42     -6.951208  3 H  py         
    45     -6.567462  4 H  s                 32     -5.353315  2 H  px         
    51     -3.427363  4 H  py                50     -3.314309  4 H  px         
    41     -1.288843  3 H  px                21     -1.043945  1 B  dxy        

 Vector   29  Occ=0.000000D+00  E= 5.265922D-01  Symmetry=e'
              MO Center= -9.2D-02, -2.4D-02,  1.9D-15, r^2= 4.9D+00
   Bfn.  Coefficient  Atom+Function         Bfn.  Coefficient  Atom+Function  
  ----- ------------  ---------------      ----- ------------  ---------------
    45     24.700026  4 H  s                 36    -18.037602  3 H  s          
    50      8.120611  4 H  px                27     -6.662424  2 H  s          
    42     -5.348802  3 H  py                32      4.604583  2 H  px         
    41      4.596766  3 H  px                51     -3.323336  4 H  py         
    33     -1.284330  2 H  py                 8     -1.037550  1 B  px         

 Vector   30  Occ=0.000000D+00  E= 7.385231D-01  Symmetry=e'
              MO Center=  4.0D-01,  7.4D-02, -3.5D-16, r^2= 5.6D+00
   Bfn.  Coefficient  Atom+Function         Bfn.  Coefficient  Atom+Function  
  ----- ------------  ---------------      ----- ------------  ---------------
    27     37.391671  2 H  s                 36    -28.752269  3 H  s          
     9    -12.223621  1 B  py                28     12.023426  2 H  s          
    37     -9.245395  3 H  s                 45     -8.639402  4 H  s          
     8     -6.430493  1 B  px                42     -4.365171  3 H  py         
    33     -4.215510  2 H  py                21     -3.937145  1 B  dxy        

 Vector   31  Occ=0.000000D+00  E= 7.385231D-01  Symmetry=e'
              MO Center= -4.0D-01, -7.4D-02, -8.7D-17, r^2= 5.6D+00
   Bfn.  Coefficient  Atom+Function         Bfn.  Coefficient  Atom+Function  
  ----- ------------  ---------------      ----- ------------  ---------------
    45     38.188222  4 H  s                 36    -26.576052  3 H  s          
     8     12.223621  1 B  px                46     12.279560  4 H  s          
    27    -11.612170  2 H  s                 37     -8.545625  3 H  s          
     9     -6.430493  1 B  py                50      5.388746  4 H  px         
    28     -3.733935  2 H  s                 42     -3.538475  3 H  py         

 Vector   32  Occ=0.000000D+00  E= 7.561406D-01  Symmetry=a2"
              MO Center= -3.0D-15,  3.5D-15,  5.3D-17, r^2= 3.9D+00
   Bfn.  Coefficient  Atom+Function         Bfn.  Coefficient  Atom+Function  
  ----- ------------  ---------------      ----- ------------  ---------------
    10      4.619708  1 B  pz                34     -2.030055  2 H  pz         
    43     -2.030055  3 H  pz                52     -2.030055  4 H  pz         
     7      1.279945  1 B  pz                13     -0.387050  1 B  pz         
    31      0.064734  2 H  pz                40      0.064734  3 H  pz         
    49      0.064734  4 H  pz         

 Vector   33  Occ=0.000000D+00  E= 8.305991D-01  Symmetry=a1'
              MO Center=  1.8D-13,  1.2D-13,  5.0D-17, r^2= 5.0D+00
   Bfn.  Coefficient  Atom+Function         Bfn.  Coefficient  Atom+Function  
  ----- ------------  ---------------      ----- ------------  ---------------
     4     31.195935  1 B  s                 28     -9.081471  2 H  s          
    37     -9.081471  3 H  s                 46     -9.081471  4 H  s          
     3     -6.249968  1 B  s                 27      2.911098  2 H  s          
    36      2.911098  3 H  s                 45      2.911098  4 H  s          
    25     -2.552784  1 B  dzz               20     -1.780015  1 B  dxx        

 Vector   34  Occ=0.000000D+00  E= 1.014963D+00  Symmetry=a1'
              MO Center=  3.1D-14,  3.2D-13, -7.2D-17, r^2= 3.4D+00
   Bfn.  Coefficient  Atom+Function         Bfn.  Coefficient  Atom+Function  
  ----- ------------  ---------------      ----- ------------  ---------------
     4     13.168770  1 B  s                 28     -3.785715  2 H  s          
    37     -3.785715  3 H  s                 46     -3.785715  4 H  s          
     3     -2.311859  1 B  s                 42      1.604372  3 H  py         
    50      1.604372  4 H  px                19     -1.577001  1 B  dzz        
     2     -1.456223  1 B  s                 27      1.266176  2 H  s          

 Vector   35  Occ=0.000000D+00  E= 1.021922D+00  Symmetry=e"
              MO Center= -7.7D-02,  6.2D-02, -3.9D-16, r^2= 2.3D+00
   Bfn.  Coefficient  Atom+Function         Bfn.  Coefficient  Atom+Function  
  ----- ------------  ---------------      ----- ------------  ---------------
    52      2.891465  4 H  pz                16      2.850525  1 B  dxz        
    34     -1.976145  2 H  pz                22      1.498558  1 B  dxz        
    43     -0.915320  3 H  pz                49      0.179945  4 H  pz         
    18     -0.151407  1 B  dyz               31     -0.122982  2 H  pz         
    24     -0.079596  1 B  dyz               40     -0.056963  3 H  pz         

 Vector   36  Occ=0.000000D+00  E= 1.021922D+00  Symmetry=e"
              MO Center=  7.7D-02, -6.2D-02, -2.5D-16, r^2= 2.3D+00
   Bfn.  Coefficient  Atom+Function         Bfn.  Coefficient  Atom+Function  
  ----- ------------  ---------------      ----- ------------  ---------------
    18      2.850525  1 B  dyz               43      2.810316  3 H  pz         
    34     -2.197848  2 H  pz                24      1.498558  1 B  dyz        
    52     -0.612468  4 H  pz                40      0.174895  3 H  pz         
    16      0.151407  1 B  dxz               31     -0.136779  2 H  pz         
    22      0.079596  1 B  dxz               49     -0.038116  4 H  pz         

 Vector   37  Occ=0.000000D+00  E= 1.096909D+00  Symmetry=e'
              MO Center=  1.0D-01, -1.3D-01, -2.7D-17, r^2= 3.3D+00
   Bfn.  Coefficient  Atom+Function         Bfn.  Coefficient  Atom+Function  
  ----- ------------  ---------------      ----- ------------  ---------------
    45     14.685377  4 H  s                 27    -11.469624  2 H  s          
    46      4.600615  4 H  s                  8      3.825075  1 B  px         
    21      3.746842  1 B  dxy               41      3.639366  3 H  px         
    28     -3.593188  2 H  s                 36     -3.215753  3 H  s          
    15      2.261123  1 B  dxy               32      1.970239  2 H  px         

 Vector   38  Occ=0.000000D+00  E= 1.096909D+00  Symmetry=e'
              MO Center= -1.0D-01,  1.3D-01,  1.2D-16, r^2= 3.3D+00
   Bfn.  Coefficient  Atom+Function         Bfn.  Coefficient  Atom+Function  
  ----- ------------  ---------------      ----- ------------  ---------------
    36     15.100597  3 H  s                 27    -10.335223  2 H  s          
    45     -4.765375  4 H  s                 37      4.730694  3 H  s          
     9      3.825075  1 B  py                51      3.547384  4 H  py         
    21      3.376261  1 B  dxy               28     -3.237804  2 H  s          
    33      2.154203  2 H  py                15      2.037487  1 B  dxy        

 Vector   39  Occ=0.000000D+00  E= 1.765330D+00  Symmetry=a1'
              MO Center= -2.4D-14, -2.0D-14, -8.5D-19, r^2= 2.3D+00
   Bfn.  Coefficient  Atom+Function         Bfn.  Coefficient  Atom+Function  
  ----- ------------  ---------------      ----- ------------  ---------------
     4     14.109811  1 B  s                 28     -4.093835  2 H  s          
    37     -4.093835  3 H  s                 46     -4.093835  4 H  s          
    14     -3.176809  1 B  dxx               17     -3.176809  1 B  dyy        
    27      2.209308  2 H  s                 36      2.209308  3 H  s          
    45      2.209308  4 H  s                 19     -1.953468  1 B  dzz        

 Vector   40  Occ=0.000000D+00  E= 2.051405D+00  Symmetry=a2'
              MO Center= -4.6D-14, -3.0D-14, -6.7D-30, r^2= 1.3D+00
   Bfn.  Coefficient  Atom+Function         Bfn.  Coefficient  Atom+Function  
  ----- ------------  ---------------      ----- ------------  ---------------
    41     -0.955000  3 H  px                51      0.955000  4 H  py         
    38      0.879862  3 H  px                48     -0.879862  4 H  py         
    32      0.699109  2 H  px                33     -0.699109  2 H  py         
    29     -0.644103  2 H  px                30      0.644103  2 H  py         
    42     -0.255892  3 H  py                50      0.255892  4 H  px         

 Vector   41  Occ=0.000000D+00  E= 2.076248D+00  Symmetry=e"
              MO Center=  1.3D-01, -6.2D-02,  5.3D-19, r^2= 1.3D+00
   Bfn.  Coefficient  Atom+Function         Bfn.  Coefficient  Atom+Function  
  ----- ------------  ---------------      ----- ------------  ---------------
    18      2.356108  1 B  dyz               40      1.413893  3 H  pz         
    31     -1.273124  2 H  pz                24     -0.529708  1 B  dyz        
    16      0.407614  1 B  dxz               49     -0.140769  4 H  pz         
    43     -0.139865  3 H  pz                34      0.125940  2 H  pz         
    22     -0.091641  1 B  dxz        

 Vector   42  Occ=0.000000D+00  E= 2.076248D+00  Symmetry=e"
              MO Center= -1.3D-01,  6.2D-02, -5.1D-16, r^2= 1.3D+00
   Bfn.  Coefficient  Atom+Function         Bfn.  Coefficient  Atom+Function  
  ----- ------------  ---------------      ----- ------------  ---------------
    16      2.356108  1 B  dxz               49      1.551350  4 H  pz         
    31     -0.897585  2 H  pz                40     -0.653765  3 H  pz         
    22     -0.529708  1 B  dxz               18     -0.407614  1 B  dyz        
    52     -0.153462  4 H  pz                24      0.091641  1 B  dyz        
    34      0.088791  2 H  pz                43      0.064672  3 H  pz         

 Vector   43  Occ=0.000000D+00  E= 2.108653D+00  Symmetry=e'
              MO Center= -5.8D-02,  2.1D-01,  2.0D-17, r^2= 1.8D+00
   Bfn.  Coefficient  Atom+Function         Bfn.  Coefficient  Atom+Function  
  ----- ------------  ---------------      ----- ------------  ---------------
     8      4.245332  1 B  px                45      2.666200  4 H  s          
    27     -2.649990  2 H  s                 46      2.538718  4 H  s          
    28     -2.523283  2 H  s                 15     -2.248935  1 B  dxy        
    41     -1.733074  3 H  px                47      1.345447  4 H  px         
    32     -1.126224  2 H  px                 9      1.113536  1 B  py         

 Vector   44  Occ=0.000000D+00  E= 2.108653D+00  Symmetry=e'
              MO Center=  5.8D-02, -2.1D-01, -1.5D-17, r^2= 1.8D+00
   Bfn.  Coefficient  Atom+Function         Bfn.  Coefficient  Atom+Function  
  ----- ------------  ---------------      ----- ------------  ---------------
     9      4.245332  1 B  py                36      3.069303  3 H  s          
    37      2.922548  3 H  s                 51     -1.606691  4 H  py         
    27     -1.548690  2 H  s                 39      1.549543  3 H  py         
    45     -1.520613  4 H  s                 28     -1.474641  2 H  s          
    46     -1.447907  4 H  s                 33     -1.378988  2 H  py         

 Vector   45  Occ=0.000000D+00  E= 2.228227D+00  Symmetry=a1'
              MO Center=  5.5D-14,  2.2D-14, -1.9D-18, r^2= 3.4D+00
   Bfn.  Coefficient  Atom+Function         Bfn.  Coefficient  Atom+Function  
  ----- ------------  ---------------      ----- ------------  ---------------
     4     22.334550  1 B  s                 28     -6.316910  2 H  s          
    37     -6.316910  3 H  s                 46     -6.316910  4 H  s          
    27      3.673346  2 H  s                 36      3.673346  3 H  s          
    45      3.673346  4 H  s                 19     -3.418242  1 B  dzz        
    14     -2.761517  1 B  dxx               17     -2.761517  1 B  dyy        

 Vector   46  Occ=0.000000D+00  E= 2.348047D+00  Symmetry=a2"
              MO Center=  1.8D-15,  1.1D-14,  7.6D-20, r^2= 1.2D+00
   Bfn.  Coefficient  Atom+Function         Bfn.  Coefficient  Atom+Function  
  ----- ------------  ---------------      ----- ------------  ---------------
     7      2.154662  1 B  pz                31     -1.102973  2 H  pz         
    40     -1.102973  3 H  pz                49     -1.102973  4 H  pz         
    10     -0.584192  1 B  pz                34      0.124640  2 H  pz         
    43      0.124640  3 H  pz                52      0.124640  4 H  pz         
    13      0.101342  1 B  pz         

 Vector   47  Occ=0.000000D+00  E= 2.596625D+00  Symmetry=e'
              MO Center= -2.5D-01, -7.3D-02,  3.2D-18, r^2= 1.8D+00
   Bfn.  Coefficient  Atom+Function         Bfn.  Coefficient  Atom+Function  
  ----- ------------  ---------------      ----- ------------  ---------------
    27      7.484444  2 H  s                 15     -5.869240  1 B  dxy        
    36     -5.412946  3 H  s                 21     -2.722143  1 B  dxy        
    51     -2.393024  4 H  py                28      2.179304  2 H  s          
    45     -2.071498  4 H  s                 48     -1.951511  4 H  py         
    41     -1.796474  3 H  px                37     -1.576130  3 H  s          

 Vector   48  Occ=0.000000D+00  E= 2.596625D+00  Symmetry=e'
              MO Center=  2.5D-01,  7.3D-02,  9.9D-18, r^2= 1.8D+00
   Bfn.  Coefficient  Atom+Function         Bfn.  Coefficient  Atom+Function  
  ----- ------------  ---------------      ----- ------------  ---------------
    45      7.446311  4 H  s                 36     -5.517126  3 H  s          
    14     -2.934620  1 B  dxx               17      2.934620  1 B  dyy        
    46      2.168201  4 H  s                 27     -1.929186  2 H  s          
    33     -1.783424  2 H  py                32      1.719729  2 H  px         
    41      1.697125  3 H  px                37     -1.606465  3 H  s          

 Vector   49  Occ=0.000000D+00  E= 4.590075D+00  Symmetry=e'
              MO Center= -9.2D-03,  1.9D-01, -1.2D-18, r^2= 1.0D+00
   Bfn.  Coefficient  Atom+Function         Bfn.  Coefficient  Atom+Function  
  ----- ------------  ---------------      ----- ------------  ---------------
    27     13.343504  2 H  s                 45    -11.784021  4 H  s          
     5     -4.925904  1 B  px                 8     -4.725047  1 B  px         
    26      3.691727  2 H  s                 44     -3.260267  4 H  s          
    28      3.184607  2 H  s                 46     -2.812415  4 H  s          
     6     -1.904255  1 B  py                 9     -1.826608  1 B  py         

 Vector   50  Occ=0.000000D+00  E= 4.590075D+00  Symmetry=e'
              MO Center=  9.2D-03, -1.9D-01,  8.5D-18, r^2= 1.0D+00
   Bfn.  Coefficient  Atom+Function         Bfn.  Coefficient  Atom+Function  
  ----- ------------  ---------------      ----- ------------  ---------------
    36     14.507384  3 H  s                 45     -8.604243  4 H  s          
    27     -5.903140  2 H  s                  6      4.925904  1 B  py         
     9      4.725047  1 B  py                35      4.013735  3 H  s          
    37      3.462382  3 H  s                 44     -2.380523  4 H  s          
    46     -2.053518  4 H  s                 42      2.023859  3 H  py         

 Vector   51  Occ=0.000000D+00  E= 6.272926D+00  Symmetry=a1'
              MO Center=  4.1D-14,  5.9D-14,  4.5D-19, r^2= 1.0D+00
   Bfn.  Coefficient  Atom+Function         Bfn.  Coefficient  Atom+Function  
  ----- ------------  ---------------      ----- ------------  ---------------
     2      9.152213  1 B  s                  1      5.457149  1 B  s          
     4     -4.988813  1 B  s                 26     -2.902347  2 H  s          
    35     -2.902347  3 H  s                 44     -2.902347  4 H  s          
    19     -2.779842  1 B  dzz               14     -1.872729  1 B  dxx        
    17     -1.872729  1 B  dyy                3      1.672775  1 B  s          


 center of mass
 --------------
 x =  -0.00000000 y =  -0.00000000 z =   0.00000000

 moments of inertia (a.u.)
 ------------------
           2.108913130136           0.000000000000           0.000000000000
           0.000000000000           2.108913130136           0.000000000000
           0.000000000000           0.000000000000           4.217826260273

     Multipole analysis of the density
     ---------------------------------

     L   x y z        total         alpha         beta         nuclear
     -   - - -        -----         -----         ----         -------
     0   0 0 0     -0.000000     -4.000000     -4.000000      8.000000

     1   1 0 0     -0.000000     -0.000000     -0.000000     -0.000000
     1   0 1 0     -0.000000     -0.000000     -0.000000     -0.000000
     1   0 0 1      0.000000      0.000000      0.000000      0.000000

     2   2 0 0     -5.631579     -3.862059     -3.862059      2.092539
     2   1 1 0     -0.000000     -0.000000     -0.000000     -0.000000
     2   1 0 1     -0.000000     -0.000000     -0.000000      0.000000
     2   0 2 0     -5.631579     -3.862059     -3.862059      2.092539
     2   0 1 1      0.000000      0.000000      0.000000      0.000000
     2   0 0 2     -3.942955     -1.971478     -1.971478      0.000000


 Parallel integral file used       4 records with       0 large values


 Task  times  cpu:        0.8s     wall:        0.8s
 Summary of allocated global arrays
-----------------------------------
  No active global arrays



                         GA Statistics for process    0
                         ------------------------------

       create   destroy   get      put      acc     scatter   gather  read&inc
calls:  191      191     1.22e+04 3667     5937        0        0      542     
number of processes/call 0.00e+00 0.00e+00 0.00e+00 0.00e+00 0.00e+00
bytes total:             1.53e+07 4.53e+06 1.06e+07 0.00e+00 0.00e+00 4.34e+03
bytes remote:            0.00e+00 0.00e+00 0.00e+00 0.00e+00 0.00e+00 0.00e+00
Max memory consumed for GA by this process: 843648 bytes
MA_summarize_allocated_blocks: starting scan ...
MA_summarize_allocated_blocks: scan completed: 0 heap blocks, 0 stack blocks
MA usage statistics:

	allocation statistics:
					      heap	     stack
					      ----	     -----
	current number of blocks	         0	         0
	maximum number of blocks	        22	        57
	current total bytes		         0	         0
	maximum total bytes		   4212696	  22512040
	maximum total K-bytes		      4213	     22513
	maximum total M-bytes		         5	        23


                                NWChem Input Module
                                -------------------





                                     CITATION
                                     --------
                Please cite the following reference when publishing
                           results obtained with NWChem:

                 M. Valiev, E.J. Bylaska, N. Govind, K. Kowalski,
              T.P. Straatsma, H.J.J. van Dam, D. Wang, J. Nieplocha,
                        E. Apra, T.L. Windus, W.A. de Jong
                 "NWChem: a comprehensive and scalable open-source
                  solution for large scale molecular simulations"
                      Comput. Phys. Commun. 181, 1477 (2010)
                           doi:10.1016/j.cpc.2010.04.018

                                      AUTHORS
                                      -------
     E. Apra, E. J. Bylaska, N. Govind, K. Kowalski, M. Valiev, W. A. de Jong,
      T. P. Straatsma, H. J. J. van Dam, D. Wang, T. L. Windus, N. P. Bauman,
       A. Panyala, J. Hammond, J. Autschbach, K. Bhaskaran-Nair, J. Brabec,
    K. Lopata, S. A. Fischer, S. Krishnamoorthy, M. Jacquelin, W. Ma, M. Klemm,
       O. Villa, Y. Chen, V. Anisimov, F. Aquino, S. Hirata, M. T. Hackler,
           Eric Hermes, L. Jensen, J. E. Moore, J. C. Becca, V. Konjkov,
            D. Mejia-Rodriguez, T. Risthaus, M. Malagoli, A. Marenich,
   A. Otero-de-la-Roza, J. Mullin, P. Nichols, R. Peverati, J. Pittner, Y. Zhao,
        P.-D. Fan, A. Fonari, M. J. Williamson, R. J. Harrison, J. R. Rehr,
      M. Dupuis, D. Silverstein, D. M. A. Smith, J. Nieplocha, V. Tipparaju,
      M. Krishnan, B. E. Van Kuiken, A. Vazquez-Mayagoitia, M. Swart, Q. Wu,
   T. Van Voorhis, A. A. Auer, M. Nooijen, L. D. Crosby, E. Brown, G. Cisneros,
     G. I. Fann, H. Fruchtl, J. Garza, K. Hirao, R. A. Kendall, J. A. Nichols,
       K. Tsemekhman, K. Wolinski, J. Anchell, D. E. Bernholdt, P. Borowski,
       T. Clark, D. Clerc, H. Dachsel, M. J. O. Deegan, K. Dyall, D. Elwood,
      E. Glendening, M. Gutowski, A. C. Hess, J. Jaffe, B. G. Johnson, J. Ju,
        R. Kobayashi, R. Kutteh, Z. Lin, R. Littlefield, X. Long, B. Meng,
      T. Nakajima, S. Niu, L. Pollack, M. Rosing, K. Glaesemann, G. Sandrone,
      M. Stave, H. Taylor, G. Thomas, J. H. van Lenthe, A. T. Wong, Z. Zhang.

 Total times  cpu:        0.8s     wall:        0.8s
