 argument  1 = bh3_cc-pvqz.inp
                                         
                                         


             Northwest Computational Chemistry Package (NWChem) 7.0.0
             --------------------------------------------------------


                    Environmental Molecular Sciences Laboratory
                       Pacific Northwest National Laboratory
                                Richland, WA 99352

                              Copyright (c) 1994-2019
                       Pacific Northwest National Laboratory
                            Battelle Memorial Institute

             NWChem is an open-source computational chemistry package
                        distributed under the terms of the
                      Educational Community License (ECL) 2.0
             A copy of the license is included with this distribution
                              in the LICENSE.TXT file

                                  ACKNOWLEDGMENT
                                  --------------

            This software and its documentation were developed at the
            EMSL at Pacific Northwest National Laboratory, a multiprogram
            national laboratory, operated for the U.S. Department of Energy
            by Battelle under Contract Number DE-AC05-76RL01830. Support
            for this work was provided by the Department of Energy Office
            of Biological and Environmental Research, Office of Basic
            Energy Sciences, and the Office of Advanced Scientific Computing.


           Job information
           ---------------

    hostname        = Amanda-Dewyers-MacBook-Air.local
    program         = nwchem
    date            = Fri Sep 11 16:52:11 2020

    compiled        = Fri_Jul_03_06:05:09_2020
    source          = /private/tmp/nwchem-20200703-71421-tc8c0i/nwchem-7.0.0
    nwchem branch   = 7.0.0
    nwchem revision = 2c9a1c7c
    ga revision     = 5.7.1
    use scalapack   = T
    input           = bh3_cc-pvqz.inp
    prefix          = bh3_cc-pvqz.
    data base       = ./bh3_cc-pvqz.db
    status          = startup
    nproc           =        1
    time left       =     -1s



           Memory information
           ------------------

    heap     =   13107196 doubles =    100.0 Mbytes
    stack    =   13107201 doubles =    100.0 Mbytes
    global   =   26214400 doubles =    200.0 Mbytes (distinct from heap & stack)
    total    =   52428797 doubles =    400.0 Mbytes
    verify   = yes
    hardfail = no 


           Directory information
           ---------------------

  0 permanent = .
  0 scratch   = .




                                NWChem Input Module
                                -------------------


                                     test case
                                     ---------
 D3H symmetry detected

          ------
          auto-z
          ------
  Looking for out-of-plane bends
  no constraints, skipping    0.0000000000000000     
  no constraints, skipping    0.0000000000000000     


                             Geometry "geometry" -> ""
                             -------------------------

 Output coordinates in a.u. (scale by  1.000000000 to convert to a.u.)

  No.       Tag          Charge          X              Y              Z
 ---- ---------------- ---------- -------------- -------------- --------------
    1 B                    5.0000     0.00000000     0.00000000     0.00000000
    2 H                    1.0000     0.83517244     0.83517244     0.00000000
    3 H                    1.0000     0.30569433    -1.14086677     0.00000000
    4 H                    1.0000    -1.14086677     0.30569433     0.00000000

      Atomic Mass 
      ----------- 

      B                 11.009310
      H                  1.007825


 Effective nuclear repulsion energy (a.u.)      14.1663517928

            Nuclear Dipole moment (a.u.) 
            ----------------------------
        X                 Y               Z
 ---------------- ---------------- ----------------
    -0.0000000000    -0.0000000000     0.0000000000

      Symmetry information
      --------------------

 Group name             D3h       
 Group number             27
 Group order              12
 No. of unique centers     2

      Symmetry unique atoms

     1    2



                                Z-matrix (autoz)
                                -------- 

 Units are Angstrom for bonds and degrees for angles

      Type          Name      I     J     K     L     M      Value
      ----------- --------  ----- ----- ----- ----- ----- ----------
    1 Stretch                  1     2                       0.62502
    2 Stretch                  1     3                       0.62502
    3 Stretch                  1     4                       0.62502
    4 Bend                     2     1     3               120.00000
    5 Bend                     2     1     4               120.00000
    6 Bend                     3     1     4               120.00000
    7 Torsion                  2     1     3     4         180.00000
    8 Torsion                  2     1     4     3         180.00000
    9 Torsion                  3     1     2     4         180.00000
   10 Torsion                  2     4     1     3         180.00000
   11 Torsion                  3     2     1     4         180.00000
   12 Torsion                  2     3     1     4         180.00000


            XYZ format geometry
            -------------------
     4
 geometry
 B                     0.00000000     0.00000000     0.00000000
 H                     0.44195425     0.44195425     0.00000000
 H                     0.16176648    -0.60372074     0.00000000
 H                    -0.60372074     0.16176648     0.00000000

 ==============================================================================
                                internuclear distances
 ------------------------------------------------------------------------------
       center one      |      center two      | atomic units |       a.u.
 ------------------------------------------------------------------------------
    2 H                |   1 B                |     1.18111  |     1.18111
    3 H                |   1 B                |     1.18111  |     1.18111
    4 H                |   1 B                |     1.18111  |     1.18111
 ------------------------------------------------------------------------------
                         number of included internuclear distances:          3
 ==============================================================================



 ==============================================================================
                                 internuclear angles
 ------------------------------------------------------------------------------
        center 1       |       center 2       |       center 3       |  degrees
 ------------------------------------------------------------------------------
    2 H                |   1 B                |   3 H                |   120.00
    2 H                |   1 B                |   4 H                |   120.00
    3 H                |   1 B                |   4 H                |   120.00
 ------------------------------------------------------------------------------
                            number of included internuclear angles:          3
 ==============================================================================



  library name resolved from: .nwchemrc
  library file name is: </usr/local/Cellar/nwchem/7.0.0_2/share/nwchem/libraries/>
  


 Summary of "ao basis" -> "" (cartesian)
 ------------------------------------------------------------------------------
       Tag                 Description            Shells   Functions and Types
 ---------------- ------------------------------  ------  ---------------------
 *                          cc-pvqz                   on all atoms 



                                 NWChem DFT Module
                                 -----------------


                                     test case


                      Basis "ao basis" -> "ao basis" (cartesian)
                      -----
  B (Boron)
  ---------
            Exponent  Coefficients 
       -------------- ---------------------------------------------------------
  1 S  2.38700000E+04  0.000088
  1 S  3.57500000E+03  0.000687
  1 S  8.12800000E+02  0.003600
  1 S  2.29700000E+02  0.014949
  1 S  7.46900000E+01  0.051435
  1 S  2.68100000E+01  0.143302
  1 S  1.03200000E+01  0.300935
  1 S  4.17800000E+00  0.403526
  1 S  1.72700000E+00  0.225340

  2 S  2.38700000E+04 -0.000018
  2 S  3.57500000E+03 -0.000139
  2 S  8.12800000E+02 -0.000725
  2 S  2.29700000E+02 -0.003063
  2 S  7.46900000E+01 -0.010581
  2 S  2.68100000E+01 -0.031365
  2 S  1.03200000E+01 -0.071012
  2 S  4.17800000E+00 -0.132103
  2 S  1.72700000E+00 -0.123072

  3 S  4.70400000E-01  1.000000

  4 S  1.89600000E-01  1.000000

  5 S  7.39400000E-02  1.000000

  6 P  2.22600000E+01  0.005095
  6 P  5.05800000E+00  0.033206
  6 P  1.48700000E+00  0.132314

  7 P  5.07100000E-01  1.000000

  8 P  1.81200000E-01  1.000000

  9 P  6.46300000E-02  1.000000

 10 D  1.11000000E+00  1.000000

 11 D  4.02000000E-01  1.000000

 12 D  1.45000000E-01  1.000000

 13 F  8.82000000E-01  1.000000

 14 F  3.11000000E-01  1.000000

 15 G  6.73000000E-01  1.000000

  H (Hydrogen)
  ------------
            Exponent  Coefficients 
       -------------- ---------------------------------------------------------
  1 S  8.26400000E+01  0.002006
  1 S  1.24100000E+01  0.015343
  1 S  2.82400000E+00  0.075579

  2 S  7.97700000E-01  1.000000

  3 S  2.58100000E-01  1.000000

  4 S  8.98900000E-02  1.000000

  5 P  2.29200000E+00  1.000000

  6 P  8.38000000E-01  1.000000

  7 P  2.92000000E-01  1.000000

  8 D  2.06200000E+00  1.000000

  9 D  6.62000000E-01  1.000000

 10 F  1.39700000E+00  1.000000



 Summary of "ao basis" -> "ao basis" (cartesian)
 ------------------------------------------------------------------------------
       Tag                 Description            Shells   Functions and Types
 ---------------- ------------------------------  ------  ---------------------
 B                          cc-pvqz                 15       70   5s4p3d2f1g
 H                          cc-pvqz                 10       35   4s3p2d1f




 Summary of "ao basis" -> "ao basis" (cartesian)
 ------------------------------------------------------------------------------
       Tag                 Description            Shells   Functions and Types
 ---------------- ------------------------------  ------  ---------------------
 B                          cc-pvqz                 15       70   5s4p3d2f1g
 H                          cc-pvqz                 10       35   4s3p2d1f


      Symmetry analysis of basis
      --------------------------

        a1'        32
        a1"         4
        a2'        10
        a2"        17
        e'         76
        e"         36

  Caching 1-el integrals 
  Rotation of axis 

            General Information
            -------------------
          SCF calculation type: DFT
          Wavefunction type:  closed shell.
          No. of atoms     :     4
          No. of electrons :     8
           Alpha electrons :     4
            Beta electrons :     4
          Charge           :     0
          Spin multiplicity:     1
          Use of symmetry is: on ; symmetry adaption is: on 
          Maximum number of iterations:  30
          AO basis - number of functions:   175
                     number of shells:    45
          Convergence on energy requested:  1.00D-06
          Convergence on density requested:  1.00D-05
          Convergence on gradient requested:  5.00D-04

              XC Information
              --------------
                         B3LYP Method XC Potential
                     Hartree-Fock (Exact) Exchange  0.200          
                        Slater Exchange Functional  0.800 local    
                    Becke 1988 Exchange Functional  0.720 non-local
              Lee-Yang-Parr Correlation Functional  0.810          
                  VWN I RPA Correlation Functional  0.190 local    

             Grid Information
             ----------------
          Grid used for XC integration:  medium    
          Radial quadrature: Mura-Knowles        
          Angular quadrature: Lebedev. 
          Tag              B.-S. Rad. Rad. Pts. Rad. Cut. Ang. Pts.
          ---              ---------- --------- --------- ---------
          B                   0.85       49           7.0       434
          H                   0.35       45           7.0       434
          Grid pruning is: on 
          Number of quadrature shells:    94
          Spatial weights used:  Erf1

          Convergence Information
          -----------------------
          Convergence aids based upon iterative change in 
          total energy or number of iterations. 
          Levelshifting, if invoked, occurs when the 
          HOMO/LUMO gap drops below (HL_TOL):  1.00D-02
          DIIS, if invoked, will attempt to extrapolate 
          using up to (NFOCK): 10 stored Fock matrices.

                    Damping( 0%)  Levelshifting(0.5)       DIIS
                  --------------- ------------------- ---------------
          dE  on:    start            ASAP                start   
          dE off:    2 iters         30 iters            30 iters 


      Screening Tolerance Information
      -------------------------------
          Density screening/tol_rho:  1.00D-10
          AO Gaussian exp screening on grid/accAOfunc:  14
          CD Gaussian exp screening on grid/accCDfunc:  20
          XC Gaussian exp screening on grid/accXCfunc:  20
          Schwarz screening/accCoul:  1.00D-08


 WARNING : Found     4 linear dependencies 
 S eigenvalue threshold:     1.00000E-05
 Smallest S eigenvalue :     2.46003E-06
 Largest  S eigenvalue :     7.67791E-06


 !! The overlap matrix has   4 vectors deemed linearly dependent with
    eigenvalues:
 2.46D-06 4.92D-06 5.04D-06 7.68D-06


      Superposition of Atomic Density Guess
      -------------------------------------

 Sum of atomic energies:         -26.03510332

      Non-variational initial energy
      ------------------------------

 Total energy =     -26.430181
 1-e energy   =     -56.834140
 2-e energy   =      16.237607
 HOMO         =      -0.688529
 LUMO         =      -0.225047


      Symmetry analysis of molecular orbitals - initial
      -------------------------------------------------


 !! scf_movecs_sym_adapt:  108 vectors were symmetry contaminated

  Symmetry fudging

 !! scf_movecs_sym_adapt:   34 vectors were symmetry contaminated

  Numbering of irreducible representations: 

     1 a1'         2 a1"         3 a2'         4 a2"         5 e'      
     6 e"      

  Orbital symmetries:

     1 a1'         2 a1'         3 e'          4 e'          5 a2"     
     6 a1'         7 e'          8 e'          9 a2"        10 a1'     
    11 e'         12 e'         13 e"         14 e"      

   Time after variat. SCF:      1.6
   Time prior to 1st pass:      1.6

 Integral file          = ./bh3_cc-pvqz.aoints.0
 Record size in doubles =  65536        No. of integs per rec  =  43688
 Max. records in memory =      0        Max. records in file   = 183600
 No. of bits per label  =      8        No. of bits per value  =     64


 #quartets = 1.548D+05 #integrals = 1.835D+07 #direct =  0.0% #cached =100.0%


 Grid_pts file          = ./bh3_cc-pvqz.gridpts.0
 Record size in doubles =  12289        No. of grid_pts per rec  =   3070
 Max. records in memory =     16        Max. recs in file   =    976936

 Grid integrated density:       7.984332043152
 Requested integration accuracy:   0.10E-05

 !! scf_movecs_sym_adapt:  108 vectors were symmetry contaminated

  Symmetry fudging

 !! scf_movecs_sym_adapt:   32 vectors were symmetry contaminated

 Warning: spatial symmetry breaking: alpha =  3.61D-03

           Memory utilization after 1st SCF pass: 
           Heap Space remaining (MW):       12.91            12905588
          Stack Space remaining (MW):       13.11            13106212

   convergence    iter        energy       DeltaE   RMS-Dens  Diis-err    time
 ---------------- ----- ----------------- --------- --------- ---------  ------
 d= 0,ls=0.0,diis     1    -25.3085552631 -3.95D+01  3.43D-03  2.96D-01     4.0
 Warning: spatial symmetry breaking: alpha =  3.96D-03
 d= 0,ls=0.0,diis     2    -25.3261098551 -1.76D-02  5.24D-04  3.78D-02     4.8
 Warning: spatial symmetry breaking: alpha =  3.89D-03
 d= 0,ls=0.0,diis     3    -25.3296280751 -3.52D-03  1.55D-04  3.13D-03     5.5
 Warning: spatial symmetry breaking: alpha =  3.90D-03
 d= 0,ls=0.0,diis     4    -25.3299700551 -3.42D-04  6.67D-06  1.35D-04     6.3
 Warning: spatial symmetry breaking: alpha =  3.90D-03
 d= 0,ls=0.0,diis     5    -25.3299703872 -3.32D-07  8.35D-07  1.33D-04     7.0


         Total DFT energy =      -25.329970387211
      One electron energy =      -59.213204242981
           Coulomb energy =       25.569182685514
    Exchange-Corr. energy =       -5.852300622555
 Nuclear repulsion energy =       14.166351792812

 Numeric. integr. density =        8.000000328011

     Total iterative time =      5.3s



                  Occupations of the irreducible representations
                  ----------------------------------------------

                     irrep           alpha         beta
                     --------     --------     --------
                     a1'               2.0          2.0
                     a1"               0.0          0.0
                     a2'               0.0          0.0
                     a2"               0.0          0.0
                     e'                2.0          2.0
                     e"                0.0          0.0


                       DFT Final Molecular Orbital Analysis
                       ------------------------------------

 Vector    1  Occ=2.000000D+00  E=-6.720720D+00  Symmetry=a1'
              MO Center= -1.8D-18, -3.2D-18,  2.7D-34, r^2= 4.3D-02
   Bfn.  Coefficient  Atom+Function         Bfn.  Coefficient  Atom+Function  
  ----- ------------  ---------------      ----- ------------  ---------------
     1      1.050712  1 B  s                  2      0.097487  1 B  s          
    72      0.039484  2 H  s                107      0.039484  3 H  s          
   142      0.039484  4 H  s                 59     -0.025956  1 B  gxxyy      

 Vector    2  Occ=2.000000D+00  E=-5.867506D-01  Symmetry=a1'
              MO Center=  7.2D-18, -5.6D-17, -1.1D-31, r^2= 9.0D-01
   Bfn.  Coefficient  Atom+Function         Bfn.  Coefficient  Atom+Function  
  ----- ------------  ---------------      ----- ------------  ---------------
     2      0.318219  1 B  s                  4      0.209838  1 B  s          
    73      0.126608  2 H  s                108      0.126608  3 H  s          
   143      0.126608  4 H  s                 72      0.117217  2 H  s          
   107      0.117217  3 H  s                142      0.117217  4 H  s          
     3      0.098220  1 B  s                  1     -0.070889  1 B  s          

 Vector    3  Occ=2.000000D+00  E=-4.390341D-01  Symmetry=e'
              MO Center=  1.0D-01,  1.0D-01,  4.6D-32, r^2= 8.2D-01
   Bfn.  Coefficient  Atom+Function         Bfn.  Coefficient  Atom+Function  
  ----- ------------  ---------------      ----- ------------  ---------------
     9      0.236276  1 B  px                10      0.236276  1 B  py         
    73      0.219203  2 H  s                  6      0.152344  1 B  px         
     7      0.152344  1 B  py                74      0.122891  2 H  s          
   108     -0.109601  3 H  s                143     -0.109601  4 H  s          
    71      0.100523  2 H  s                 72      0.100413  2 H  s          

 Vector    4  Occ=2.000000D+00  E=-4.390338D-01  Symmetry=e'
              MO Center= -1.0D-01, -1.0D-01,  6.8D-16, r^2= 8.2D-01
   Bfn.  Coefficient  Atom+Function         Bfn.  Coefficient  Atom+Function  
  ----- ------------  ---------------      ----- ------------  ---------------
     9      0.240364  1 B  px                10     -0.240364  1 B  py         
   108      0.185317  3 H  s                143     -0.185317  4 H  s          
     6      0.152339  1 B  px                 7     -0.152339  1 B  py         
   109      0.106274  3 H  s                144     -0.106274  4 H  s          
   106      0.087059  3 H  s                141     -0.087059  4 H  s          

 Vector    5  Occ=0.000000D+00  E=-7.378720D-02  Symmetry=a2"
              MO Center= -4.0D-15, -1.0D-15,  5.1D-14, r^2= 2.2D+00
   Bfn.  Coefficient  Atom+Function         Bfn.  Coefficient  Atom+Function  
  ----- ------------  ---------------      ----- ------------  ---------------
    17      0.435375  1 B  pz                11      0.243035  1 B  pz         
    14      0.182276  1 B  pz                 8      0.156097  1 B  pz         
    55      0.068683  1 B  fzzz              48      0.064774  1 B  fxxz       
    53      0.064774  1 B  fyyz              38      0.035849  1 B  fxxz       
    43      0.035849  1 B  fyyz              83      0.031344  2 H  pz         

 Vector    6  Occ=0.000000D+00  E= 4.794217D-02  Symmetry=a1'
              MO Center= -3.4D-15, -2.4D-16, -4.0D-14, r^2= 7.6D+00
   Bfn.  Coefficient  Atom+Function         Bfn.  Coefficient  Atom+Function  
  ----- ------------  ---------------      ----- ------------  ---------------
     5      9.116924  1 B  s                  4      3.024358  1 B  s          
    24     -2.082724  1 B  dxx               27     -2.082724  1 B  dyy        
    35     -1.780006  1 B  dzz               30     -1.626092  1 B  dxx        
    33     -1.626092  1 B  dyy               29     -1.536147  1 B  dzz        
    74     -1.477087  2 H  s                109     -1.477087  3 H  s          

 Vector    7  Occ=0.000000D+00  E= 7.624489D-02  Symmetry=e'
              MO Center=  3.8D-01,  3.8D-01,  6.8D-15, r^2= 8.6D+00
   Bfn.  Coefficient  Atom+Function         Bfn.  Coefficient  Atom+Function  
  ----- ------------  ---------------      ----- ------------  ---------------
   109      5.900219  3 H  s                144     -5.900219  4 H  s          
    15     -2.599349  1 B  px                16      2.599349  1 B  py         
    12     -1.104387  1 B  px                13      1.104387  1 B  py         
     9      0.678404  1 B  px                10     -0.678404  1 B  py         
    30      0.660518  1 B  dxx               33     -0.660518  1 B  dyy        

 Vector    8  Occ=0.000000D+00  E= 7.624795D-02  Symmetry=e'
              MO Center= -3.8D-01, -3.8D-01, -5.0D-15, r^2= 8.6D+00
   Bfn.  Coefficient  Atom+Function         Bfn.  Coefficient  Atom+Function  
  ----- ------------  ---------------      ----- ------------  ---------------
    74      6.814308  2 H  s                109     -3.407154  3 H  s          
   144     -3.407154  4 H  s                 15     -2.599436  1 B  px         
    16     -2.599436  1 B  py                31     -1.317207  1 B  dxy        
    12     -1.104386  1 B  px                13     -1.104386  1 B  py         
     9      0.669610  1 B  px                10      0.669610  1 B  py         

 Vector    9  Occ=0.000000D+00  E= 1.371746D-01  Symmetry=a2"
              MO Center= -2.1D-14, -6.4D-15,  9.2D-15, r^2= 7.5D+00
   Bfn.  Coefficient  Atom+Function         Bfn.  Coefficient  Atom+Function  
  ----- ------------  ---------------      ----- ------------  ---------------
    14      4.034964  1 B  pz                17     -1.761682  1 B  pz         
    55     -1.452350  1 B  fzzz              48     -1.428343  1 B  fxxz       
    53     -1.428343  1 B  fyyz              11     -0.332090  1 B  pz         
    45     -0.119202  1 B  fzzz               8      0.097277  1 B  pz         
    80     -0.085040  2 H  pz               115     -0.085040  3 H  pz         

 Vector   10  Occ=0.000000D+00  E= 1.884619D-01  Symmetry=a1'
              MO Center= -4.4D-12,  8.1D-12, -1.8D-14, r^2= 6.9D+00
   Bfn.  Coefficient  Atom+Function         Bfn.  Coefficient  Atom+Function  
  ----- ------------  ---------------      ----- ------------  ---------------
     5     23.981635  1 B  s                 74    -13.213811  2 H  s          
   109    -13.213811  3 H  s                144    -13.213811  4 H  s          
    30      3.584954  1 B  dxx               33      3.584954  1 B  dyy        
    35      2.901644  1 B  dzz               73      1.748958  2 H  s          
   108      1.748958  3 H  s                143      1.748958  4 H  s          

 Vector   11  Occ=0.000000D+00  E= 1.981448D-01  Symmetry=e'
              MO Center= -3.8D-01, -3.8D-01,  1.9D-25, r^2= 6.4D+00
   Bfn.  Coefficient  Atom+Function         Bfn.  Coefficient  Atom+Function  
  ----- ------------  ---------------      ----- ------------  ---------------
   109     11.928676  3 H  s                144    -11.928676  4 H  s          
    12     -5.971115  1 B  px                13      5.971115  1 B  py         
    15     -2.796725  1 B  px                16      2.796725  1 B  py         
    51      2.114339  1 B  fxzz              54     -2.114339  1 B  fyzz       
    46      1.999776  1 B  fxxx              47     -1.999776  1 B  fxxy       

 Vector   12  Occ=0.000000D+00  E= 1.982280D-01  Symmetry=e'
              MO Center=  3.8D-01,  3.8D-01,  2.0D-15, r^2= 6.4D+00
   Bfn.  Coefficient  Atom+Function         Bfn.  Coefficient  Atom+Function  
  ----- ------------  ---------------      ----- ------------  ---------------
    74     13.784805  2 H  s                109     -6.892403  3 H  s          
   144     -6.892403  4 H  s                 12     -5.977597  1 B  px         
    13     -5.977597  1 B  py                15     -2.799897  1 B  px         
    16     -2.799897  1 B  py                51      2.092651  1 B  fxzz       
    54      2.092651  1 B  fyzz              46      1.974620  1 B  fxxx       

 Vector   13  Occ=0.000000D+00  E= 2.691992D-01  Symmetry=e"
              MO Center= -4.2D-03,  6.6D-02, -8.3D-15, r^2= 4.3D+00
   Bfn.  Coefficient  Atom+Function         Bfn.  Coefficient  Atom+Function  
  ----- ------------  ---------------      ----- ------------  ---------------
    34      2.701149  1 B  dyz              118      1.631825  3 H  pz         
    32     -1.018977  1 B  dxz              153     -0.956182  4 H  pz         
    83     -0.675643  2 H  pz                48      0.668669  1 B  fxxz       
    53     -0.668669  1 B  fyyz              60      0.656214  1 B  gxxyz      
    67      0.656214  1 B  gyyyz             50      0.604719  1 B  fxyz       

 Vector   14  Occ=0.000000D+00  E= 2.691992D-01  Symmetry=e"
              MO Center=  4.2D-03, -6.6D-02, -3.0D-16, r^2= 4.3D+00
   Bfn.  Coefficient  Atom+Function         Bfn.  Coefficient  Atom+Function  
  ----- ------------  ---------------      ----- ------------  ---------------
    32      2.701149  1 B  dxz               83     -1.494186  2 H  pz         
    50      1.337338  1 B  fxyz             153      1.332217  4 H  pz         
    34      1.018977  1 B  dyz               58      0.656214  1 B  gxxxz      
    63      0.656214  1 B  gxyyz             40      0.523933  1 B  fxyz       
    80     -0.519483  2 H  pz                20      0.482671  1 B  dxz        

 Vector   15  Occ=0.000000D+00  E= 3.410364D-01  Symmetry=e'
              MO Center=  5.7D-01,  5.7D-01, -4.7D-16, r^2= 6.0D+00
   Bfn.  Coefficient  Atom+Function         Bfn.  Coefficient  Atom+Function  
  ----- ------------  ---------------      ----- ------------  ---------------
   109     12.968343  3 H  s                144    -12.968343  4 H  s          
    15     -3.839833  1 B  px                16      3.839833  1 B  py         
    12     -3.351067  1 B  px                13      3.351067  1 B  py         
    30      2.491463  1 B  dxx               33     -2.491463  1 B  dyy        
     9      1.953160  1 B  px                10     -1.953160  1 B  py         

 Vector   16  Occ=0.000000D+00  E= 3.411318D-01  Symmetry=e'
              MO Center= -5.7D-01, -5.7D-01,  5.9D-15, r^2= 6.0D+00
   Bfn.  Coefficient  Atom+Function         Bfn.  Coefficient  Atom+Function  
  ----- ------------  ---------------      ----- ------------  ---------------
    74     14.963169  2 H  s                109     -7.481584  3 H  s          
   144     -7.481584  4 H  s                 31     -4.965881  1 B  dxy        
    15     -3.836808  1 B  px                16     -3.836808  1 B  py         
    12     -3.342363  1 B  px                13     -3.342363  1 B  py         
     9      1.955276  1 B  px                10      1.955276  1 B  py         

 Vector   17  Occ=0.000000D+00  E= 3.457659D-01  Symmetry=a1'
              MO Center= -4.0D-12, -4.7D-12,  3.1D-15, r^2= 7.1D+00
   Bfn.  Coefficient  Atom+Function         Bfn.  Coefficient  Atom+Function  
  ----- ------------  ---------------      ----- ------------  ---------------
     5     19.366745  1 B  s                  4     11.148341  1 B  s          
    24     -5.861988  1 B  dxx               27     -5.861988  1 B  dyy        
    74     -5.442908  2 H  s                109     -5.442908  3 H  s          
   144     -5.442908  4 H  s                 35     -4.020754  1 B  dzz        
    29     -3.875687  1 B  dzz               30     -2.668118  1 B  dxx        

 Vector   18  Occ=0.000000D+00  E= 4.652405D-01  Symmetry=a1'
              MO Center= -9.8D-13, -1.0D-12, -2.3D-15, r^2= 5.6D+00
   Bfn.  Coefficient  Atom+Function         Bfn.  Coefficient  Atom+Function  
  ----- ------------  ---------------      ----- ------------  ---------------
     5     25.928551  1 B  s                 74    -16.588822  2 H  s          
   109    -16.588822  3 H  s                144    -16.588822  4 H  s          
    30      7.717313  1 B  dxx               33      7.717313  1 B  dyy        
    35      3.428881  1 B  dzz               29      2.810694  1 B  dzz        
     3     -1.976648  1 B  s                 73      1.805771  2 H  s          

 Vector   19  Occ=0.000000D+00  E= 5.373515D-01  Symmetry=a2"
              MO Center= -4.1D-15, -1.5D-15, -2.0D-15, r^2= 5.2D+00
   Bfn.  Coefficient  Atom+Function         Bfn.  Coefficient  Atom+Function  
  ----- ------------  ---------------      ----- ------------  ---------------
    14     10.440212  1 B  pz                48     -4.459390  1 B  fxxz       
    53     -4.459390  1 B  fyyz              55     -4.424279  1 B  fzzz       
    11     -2.451076  1 B  pz                17     -1.633743  1 B  pz         
    45     -0.316035  1 B  fzzz              38     -0.248142  1 B  fxxz       
    43     -0.248142  1 B  fyyz               8     -0.222107  1 B  pz         

 Vector   20  Occ=0.000000D+00  E= 5.749355D-01  Symmetry=e'
              MO Center= -5.0D-01, -5.0D-01, -1.4D-16, r^2= 5.0D+00
   Bfn.  Coefficient  Atom+Function         Bfn.  Coefficient  Atom+Function  
  ----- ------------  ---------------      ----- ------------  ---------------
   109    -14.657421  3 H  s                144     14.657421  4 H  s          
    12     14.227403  1 B  px                13    -14.227403  1 B  py         
    51     -4.615441  1 B  fxzz              54      4.615441  1 B  fyzz       
    46     -4.401818  1 B  fxxx              47      4.401818  1 B  fxxy       
    49     -4.401818  1 B  fxyy              52      4.401818  1 B  fyyy       

 Vector   21  Occ=0.000000D+00  E= 5.750432D-01  Symmetry=e'
              MO Center=  5.0D-01,  5.0D-01, -1.9D-15, r^2= 5.0D+00
   Bfn.  Coefficient  Atom+Function         Bfn.  Coefficient  Atom+Function  
  ----- ------------  ---------------      ----- ------------  ---------------
    74     16.948655  2 H  s                 12    -14.252478  1 B  px         
    13    -14.252478  1 B  py               109     -8.474327  3 H  s          
   144     -8.474327  4 H  s                 51      4.596765  1 B  fxzz       
    54      4.596765  1 B  fyzz              46      4.380971  1 B  fxxx       
    47      4.380971  1 B  fxxy              49      4.380971  1 B  fxyy       

 Vector   22  Occ=0.000000D+00  E= 6.934677D-01  Symmetry=a2'
              MO Center= -2.6D-14, -3.7D-13,  3.9D-17, r^2= 3.6D+00
   Bfn.  Coefficient  Atom+Function         Bfn.  Coefficient  Atom+Function  
  ----- ------------  ---------------      ----- ------------  ---------------
   116      7.759054  3 H  px               152     -7.759054  4 H  py         
    47      7.011902  1 B  fxxy              49     -7.011902  1 B  fxyy       
    81     -5.680022  2 H  px                82      5.680022  2 H  py         
   113      2.450697  3 H  px               149     -2.450697  4 H  py         
    46      2.337301  1 B  fxxx              52     -2.337301  1 B  fyyy       

 Vector   23  Occ=0.000000D+00  E= 7.218990D-01  Symmetry=e'
              MO Center= -1.1D-02, -1.1D-02,  7.0D-16, r^2= 3.7D+00
   Bfn.  Coefficient  Atom+Function         Bfn.  Coefficient  Atom+Function  
  ----- ------------  ---------------      ----- ------------  ---------------
    12      7.799174  1 B  px                13     -7.799174  1 B  py         
   109     -7.708819  3 H  s                144      7.708819  4 H  s          
   108     -7.602299  3 H  s                143      7.602299  4 H  s          
     9     -6.790599  1 B  px                10      6.790599  1 B  py         
   107      5.910918  3 H  s                142     -5.910918  4 H  s          

 Vector   24  Occ=0.000000D+00  E= 7.232027D-01  Symmetry=e'
              MO Center=  1.3D-02,  1.3D-02,  3.8D-16, r^2= 3.7D+00
   Bfn.  Coefficient  Atom+Function         Bfn.  Coefficient  Atom+Function  
  ----- ------------  ---------------      ----- ------------  ---------------
    74      8.852243  2 H  s                 73      7.961648  2 H  s          
    12     -7.748490  1 B  px                13     -7.748490  1 B  py         
     9      7.034538  1 B  px                10      7.034538  1 B  py         
    72     -6.872608  2 H  s                 31     -6.415729  1 B  dxy        
    25     -4.497959  1 B  dxy              109     -4.426121  3 H  s          

 Vector   25  Occ=0.000000D+00  E= 7.254599D-01  Symmetry=a1'
              MO Center=  1.4D-12, -1.2D-12, -5.7D-16, r^2= 3.4D+00
   Bfn.  Coefficient  Atom+Function         Bfn.  Coefficient  Atom+Function  
  ----- ------------  ---------------      ----- ------------  ---------------
     4     11.024473  1 B  s                 29     -4.099098  1 B  dzz        
    24     -3.994957  1 B  dxx               27     -3.994957  1 B  dyy        
     3     -3.519030  1 B  s                117      3.421887  3 H  py         
   151      3.421887  4 H  px                72     -2.954595  2 H  s          
   107     -2.954595  3 H  s                142     -2.954595  4 H  s          

 Vector   26  Occ=0.000000D+00  E= 7.631828D-01  Symmetry=e"
              MO Center= -1.4D-01, -1.1D-01,  9.4D-16, r^2= 3.4D+00
   Bfn.  Coefficient  Atom+Function         Bfn.  Coefficient  Atom+Function  
  ----- ------------  ---------------      ----- ------------  ---------------
   153     -5.291676  4 H  pz               118      4.916721  3 H  pz         
    26     -4.391071  1 B  dxz               28      3.865783  1 B  dyz        
    32     -2.613980  1 B  dxz               34      2.301279  1 B  dyz        
    48      1.584526  1 B  fxxz              53     -1.584526  1 B  fyyz       
   162     -0.979721  4 H  dxz              129      0.908059  3 H  dyz        

 Vector   27  Occ=0.000000D+00  E= 7.631828D-01  Symmetry=e"
              MO Center=  1.4D-01,  1.1D-01,  2.9D-15, r^2= 3.4D+00
   Bfn.  Coefficient  Atom+Function         Bfn.  Coefficient  Atom+Function  
  ----- ------------  ---------------      ----- ------------  ---------------
    83      5.893820  2 H  pz                28     -4.391071  1 B  dyz        
    26     -3.865783  1 B  dxz              118     -3.271631  3 H  pz         
    50     -3.169053  1 B  fxyz              34     -2.613980  1 B  dyz        
   153     -2.622189  4 H  pz                32     -2.301279  1 B  dxz        
    69      0.898681  1 B  gyzzz             40     -0.873723  1 B  fxyz       

 Vector   28  Occ=0.000000D+00  E= 8.274312D-01  Symmetry=a2"
              MO Center=  1.4D-13,  1.9D-13, -1.6D-16, r^2= 3.2D+00
   Bfn.  Coefficient  Atom+Function         Bfn.  Coefficient  Atom+Function  
  ----- ------------  ---------------      ----- ------------  ---------------
    11      9.541573  1 B  pz                48      5.816476  1 B  fxxz       
    53      5.816476  1 B  fyyz              83     -5.366970  2 H  pz         
   118     -5.366970  3 H  pz               153     -5.366970  4 H  pz         
    55      3.842100  1 B  fzzz             129     -1.219811  3 H  dyz        
   162     -1.219811  4 H  dxz               92      0.892964  2 H  dxz        

 Vector   29  Occ=0.000000D+00  E= 8.998647D-01  Symmetry=e'
              MO Center=  2.9D-01,  2.9D-01, -5.3D-16, r^2= 4.0D+00
   Bfn.  Coefficient  Atom+Function         Bfn.  Coefficient  Atom+Function  
  ----- ------------  ---------------      ----- ------------  ---------------
   109     10.372139  3 H  s                144    -10.372139  4 H  s          
   107      4.418231  3 H  s                142     -4.418231  4 H  s          
    81     -4.154373  2 H  px                82      4.154373  2 H  py         
   116     -3.234907  3 H  px               152      3.234907  4 H  py         
    51      2.766841  1 B  fxzz              54     -2.766841  1 B  fyzz       

 Vector   30  Occ=0.000000D+00  E= 8.998780D-01  Symmetry=e'
              MO Center= -2.9D-01, -2.9D-01, -3.1D-15, r^2= 4.0D+00
   Bfn.  Coefficient  Atom+Function         Bfn.  Coefficient  Atom+Function  
  ----- ------------  ---------------      ----- ------------  ---------------
    74     11.982204  2 H  s                109     -5.991102  3 H  s          
   144     -5.991102  4 H  s                 72      5.101412  2 H  s          
    31     -4.693748  1 B  dxy              116     -4.684387  3 H  px         
   152     -4.684387  4 H  py                25     -3.819394  1 B  dxy        
    51      2.776868  1 B  fxzz              54      2.776868  1 B  fyzz       

 Vector   31  Occ=0.000000D+00  E= 9.549474D-01  Symmetry=a1'
              MO Center=  9.0D-14, -6.1D-13,  4.7D-16, r^2= 5.1D+00
   Bfn.  Coefficient  Atom+Function         Bfn.  Coefficient  Atom+Function  
  ----- ------------  ---------------      ----- ------------  ---------------
     4     24.638530  1 B  s                  5     15.914292  1 B  s          
    24    -12.490784  1 B  dxx               27    -12.490784  1 B  dyy        
    29     -7.360727  1 B  dzz               59      5.849757  1 B  gxxyy      
    35     -5.286321  1 B  dzz               72     -4.406397  2 H  s          
   107     -4.406397  3 H  s                142     -4.406397  4 H  s          

 Vector   32  Occ=0.000000D+00  E= 9.626633D-01  Symmetry=e"
              MO Center=  4.8D-02,  9.3D-02,  5.6D-16, r^2= 2.5D+00
   Bfn.  Coefficient  Atom+Function         Bfn.  Coefficient  Atom+Function  
  ----- ------------  ---------------      ----- ------------  ---------------
    28      5.071968  1 B  dyz               26     -3.694705  1 B  dxz        
    60     -2.874674  1 B  gxxyz             67     -2.874674  1 B  gyyyz      
    69     -2.647221  1 B  gyzzz            115     -2.617048  3 H  pz         
   150      2.181780  4 H  pz                48     -2.112092  1 B  fxxz       
    53      2.112092  1 B  fyyz              58      2.094073  1 B  gxxxz      

 Vector   33  Occ=0.000000D+00  E= 9.626633D-01  Symmetry=e"
              MO Center= -4.8D-02, -9.3D-02, -2.1D-15, r^2= 2.5D+00
   Bfn.  Coefficient  Atom+Function         Bfn.  Coefficient  Atom+Function  
  ----- ------------  ---------------      ----- ------------  ---------------
    26      5.071968  1 B  dxz               50     -4.224183  1 B  fxyz       
    28      3.694705  1 B  dyz               58     -2.874674  1 B  gxxxz      
    63     -2.874674  1 B  gxyyz             80      2.770605  2 H  pz         
    65     -2.647221  1 B  gxzzz             60     -2.094073  1 B  gxxyz      
    67     -2.094073  1 B  gyyyz             69     -1.928384  1 B  gyzzz      

 Vector   34  Occ=0.000000D+00  E= 1.164022D+00  Symmetry=a1'
              MO Center= -3.2D-13, -1.1D-12,  5.7D-16, r^2= 3.5D+00
   Bfn.  Coefficient  Atom+Function         Bfn.  Coefficient  Atom+Function  
  ----- ------------  ---------------      ----- ------------  ---------------
     5     17.092301  1 B  s                 74    -11.896737  2 H  s          
   109    -11.896737  3 H  s                144    -11.896737  4 H  s          
    30      7.248339  1 B  dxx               33      7.248339  1 B  dyy        
    29      5.914241  1 B  dzz                4     -5.732354  1 B  s          
    24      4.087997  1 B  dxx               27      4.087997  1 B  dyy        

 Vector   35  Occ=0.000000D+00  E= 1.215398D+00  Symmetry=e'
              MO Center= -1.4D-02, -1.4D-02,  9.7D-16, r^2= 3.1D+00
   Bfn.  Coefficient  Atom+Function         Bfn.  Coefficient  Atom+Function  
  ----- ------------  ---------------      ----- ------------  ---------------
    72     10.453365  2 H  s                  9     -9.483825  1 B  px         
    10     -9.483825  1 B  py                73     -8.308398  2 H  s          
    25      7.982535  1 B  dxy               12     -6.346806  1 B  px         
    13     -6.346806  1 B  py                57     -5.587325  1 B  gxxxy      
    62     -5.587325  1 B  gxyyy            107     -5.226683  3 H  s          

 Vector   36  Occ=0.000000D+00  E= 1.215414D+00  Symmetry=e'
              MO Center=  9.6D-03,  9.6D-03, -8.0D-17, r^2= 3.2D+00
   Bfn.  Coefficient  Atom+Function         Bfn.  Coefficient  Atom+Function  
  ----- ------------  ---------------      ----- ------------  ---------------
     9      8.964753  1 B  px                10     -8.964753  1 B  py         
   107     -8.886021  3 H  s                142      8.886021  4 H  s          
   108      8.191468  3 H  s                143     -8.191468  4 H  s          
    12      6.483426  1 B  px                13     -6.483426  1 B  py         
   117      5.299064  3 H  py               151     -5.299064  4 H  px         

 Vector   37  Occ=0.000000D+00  E= 1.323616D+00  Symmetry=a2"
              MO Center= -1.7D-13, -1.8D-14, -2.7D-16, r^2= 3.3D+00
   Bfn.  Coefficient  Atom+Function         Bfn.  Coefficient  Atom+Function  
  ----- ------------  ---------------      ----- ------------  ---------------
    14     11.574288  1 B  pz                48    -10.807443  1 B  fxxz       
    53    -10.807443  1 B  fyyz              55     -7.487533  1 B  fzzz       
    11     -6.023575  1 B  pz                83      2.587802  2 H  pz         
   118      2.587802  3 H  pz               153      2.587802  4 H  pz         
    17     -1.088347  1 B  pz                80      1.055661  2 H  pz         

 Vector   38  Occ=0.000000D+00  E= 1.336347D+00  Symmetry=e'
              MO Center= -2.9D-01, -2.9D-01, -1.3D-15, r^2= 3.6D+00
   Bfn.  Coefficient  Atom+Function         Bfn.  Coefficient  Atom+Function  
  ----- ------------  ---------------      ----- ------------  ---------------
    12     14.558725  1 B  px                13    -14.558725  1 B  py         
   109     -9.996620  3 H  s                144      9.996620  4 H  s          
    46     -7.850393  1 B  fxxx              47      7.850393  1 B  fxxy       
    49     -7.850393  1 B  fxyy              52      7.850393  1 B  fyyy       
    51     -6.643643  1 B  fxzz              54      6.643643  1 B  fyzz       

 Vector   39  Occ=0.000000D+00  E= 1.337066D+00  Symmetry=e'
              MO Center=  2.8D-01,  2.8D-01, -6.7D-15, r^2= 3.6D+00
   Bfn.  Coefficient  Atom+Function         Bfn.  Coefficient  Atom+Function  
  ----- ------------  ---------------      ----- ------------  ---------------
    12     15.076520  1 B  px                13     15.076520  1 B  py         
    74    -11.998672  2 H  s                 46     -7.939554  1 B  fxxx       
    47     -7.939554  1 B  fxxy              49     -7.939554  1 B  fxyy       
    52     -7.939554  1 B  fyyy              51     -6.924408  1 B  fxzz       
    54     -6.924408  1 B  fyzz             109      5.999336  3 H  s          

 Vector   40  Occ=0.000000D+00  E= 1.379715D+00  Symmetry=e'
              MO Center= -1.5D-01, -1.5D-01,  4.3D-18, r^2= 3.2D+00
   Bfn.  Coefficient  Atom+Function         Bfn.  Coefficient  Atom+Function  
  ----- ------------  ---------------      ----- ------------  ---------------
    25     28.914206  1 B  dxy               64     -9.683994  1 B  gxyzz      
    57     -8.953702  1 B  gxxxy             62     -8.953702  1 B  gxyyy      
    12      8.598577  1 B  px                13      8.598577  1 B  py         
    74     -8.387917  2 H  s                116      7.533856  3 H  px         
   152      7.533856  4 H  py                31      6.892646  1 B  dxy        

 Vector   41  Occ=0.000000D+00  E= 1.384917D+00  Symmetry=e'
              MO Center=  1.7D-01,  1.7D-01,  1.4D-15, r^2= 3.2D+00
   Bfn.  Coefficient  Atom+Function         Bfn.  Coefficient  Atom+Function  
  ----- ------------  ---------------      ----- ------------  ---------------
    24     14.419871  1 B  dxx               27    -14.419871  1 B  dyy        
    12     -9.526602  1 B  px                13      9.526602  1 B  py         
   109      7.911385  3 H  s                144     -7.911385  4 H  s          
   117     -6.123131  3 H  py               151      6.123131  4 H  px         
    51      5.894874  1 B  fxzz              54     -5.894874  1 B  fyzz       

 Vector   42  Occ=0.000000D+00  E= 1.391687D+00  Symmetry=a2"
              MO Center= -4.3D-14, -3.9D-14,  1.0D-16, r^2= 2.9D+00
   Bfn.  Coefficient  Atom+Function         Bfn.  Coefficient  Atom+Function  
  ----- ------------  ---------------      ----- ------------  ---------------
    11     17.948411  1 B  pz                48     10.383849  1 B  fxxz       
    53     10.383849  1 B  fyyz              83     -8.090844  2 H  pz         
   118     -8.090844  3 H  pz               153     -8.090844  4 H  pz         
    80     -4.517470  2 H  pz               115     -4.517470  3 H  pz         
   150     -4.517470  4 H  pz                14      4.446841  1 B  pz         

 Vector   43  Occ=0.000000D+00  E= 1.393397D+00  Symmetry=a1'
              MO Center=  7.5D-13, -3.7D-12,  5.4D-16, r^2= 3.0D+00
   Bfn.  Coefficient  Atom+Function         Bfn.  Coefficient  Atom+Function  
  ----- ------------  ---------------      ----- ------------  ---------------
     4     19.646403  1 B  s                 29    -16.733925  1 B  dzz        
    47      9.811861  1 B  fxxy              49      9.811861  1 B  fxyy       
    72     -9.368807  2 H  s                107     -9.368807  3 H  s          
   142     -9.368807  4 H  s                117      7.476113  3 H  py         
   151      7.476113  4 H  px                 3     -5.626484  1 B  s          

 Vector   44  Occ=0.000000D+00  E= 1.432190D+00  Symmetry=e"
              MO Center= -7.3D-02,  1.5D-01,  6.8D-15, r^2= 2.9D+00
   Bfn.  Coefficient  Atom+Function         Bfn.  Coefficient  Atom+Function  
  ----- ------------  ---------------      ----- ------------  ---------------
    26     22.672635  1 B  dxz               50      9.690353  1 B  fxyz       
   153      9.099544  4 H  pz                83     -8.131915  2 H  pz         
    65     -7.077335  1 B  gxzzz             58     -6.238420  1 B  gxxxz      
    63     -6.238420  1 B  gxyyz             28      3.771613  1 B  dyz        
    48     -3.463089  1 B  fxxz              53      3.463089  1 B  fyyz       

 Vector   45  Occ=0.000000D+00  E= 1.432190D+00  Symmetry=e"
              MO Center=  7.3D-02, -1.5D-01,  3.4D-16, r^2= 2.9D+00
   Bfn.  Coefficient  Atom+Function         Bfn.  Coefficient  Atom+Function  
  ----- ------------  ---------------      ----- ------------  ---------------
    28     22.672635  1 B  dyz              118      9.948587  3 H  pz         
    69     -7.077335  1 B  gyzzz             50      6.926178  1 B  fxyz       
    60     -6.238420  1 B  gxxyz             67     -6.238420  1 B  gyyyz      
    83     -5.812285  2 H  pz                48      4.845177  1 B  fxxz       
    53     -4.845177  1 B  fyyz             153     -4.136302  4 H  pz         

 Vector   46  Occ=0.000000D+00  E= 1.626019D+00  Symmetry=a2'
              MO Center= -5.8D-13,  1.6D-13, -1.2D-15, r^2= 2.6D+00
   Bfn.  Coefficient  Atom+Function         Bfn.  Coefficient  Atom+Function  
  ----- ------------  ---------------      ----- ------------  ---------------
    47     14.679259  1 B  fxxy              49    -14.679259  1 B  fxyy       
   116     11.811740  3 H  px               152    -11.811740  4 H  py         
    81     -8.646794  2 H  px                82      8.646794  2 H  py         
   113      5.010793  3 H  px               149     -5.010793  4 H  py         
    46      4.893086  1 B  fxxx              52     -4.893086  1 B  fyyy       

 Vector   47  Occ=0.000000D+00  E= 1.825016D+00  Symmetry=e'
              MO Center=  7.3D-02,  7.3D-02, -1.0D-15, r^2= 2.3D+00
   Bfn.  Coefficient  Atom+Function         Bfn.  Coefficient  Atom+Function  
  ----- ------------  ---------------      ----- ------------  ---------------
    25     19.964840  1 B  dxy               73     19.676188  2 H  s          
    72    -15.381886  2 H  s                  9     11.286276  1 B  px         
    10     11.286276  1 B  py               108     -9.838094  3 H  s          
   143     -9.838094  4 H  s                107      7.690943  3 H  s          
   142      7.690943  4 H  s                 12     -6.832481  1 B  px         

 Vector   48  Occ=0.000000D+00  E= 1.833068D+00  Symmetry=e'
              MO Center= -7.8D-02, -7.8D-02, -8.3D-17, r^2= 2.3D+00
   Bfn.  Coefficient  Atom+Function         Bfn.  Coefficient  Atom+Function  
  ----- ------------  ---------------      ----- ------------  ---------------
   108     16.001133  3 H  s                143    -16.001133  4 H  s          
   107    -14.214182  3 H  s                142     14.214182  4 H  s          
     9     12.219502  1 B  px                10    -12.219502  1 B  py         
    24    -10.089841  1 B  dxx               27     10.089841  1 B  dyy        
    12     -6.642306  1 B  px                13      6.642306  1 B  py         

 Vector   49  Occ=0.000000D+00  E= 1.867417D+00  Symmetry=a1'
              MO Center=  5.7D-14,  4.4D-14, -8.5D-16, r^2= 2.2D+00
   Bfn.  Coefficient  Atom+Function         Bfn.  Coefficient  Atom+Function  
  ----- ------------  ---------------      ----- ------------  ---------------
    24     13.276857  1 B  dxx               27     13.276857  1 B  dyy        
     4    -10.781299  1 B  s                 29     -5.492305  1 B  dzz        
    59     -5.504906  1 B  gxxyy             47      4.761604  1 B  fxxy       
    49      4.761604  1 B  fxyy             114      4.745550  3 H  py         
   148      4.745550  4 H  px                 5     -4.482606  1 B  s          

 Vector   50  Occ=0.000000D+00  E= 2.038771D+00  Symmetry=a1'
              MO Center=  8.3D-13,  4.5D-13,  5.2D-16, r^2= 3.6D+00
   Bfn.  Coefficient  Atom+Function         Bfn.  Coefficient  Atom+Function  
  ----- ------------  ---------------      ----- ------------  ---------------
     4     38.579107  1 B  s                 24    -21.785571  1 B  dxx        
    27    -21.785571  1 B  dyy               29    -16.151346  1 B  dzz        
    59     11.053616  1 B  gxxyy              5      9.236593  1 B  s          
    61      6.720293  1 B  gxxzz             68      6.720293  1 B  gyyzz      
    72     -6.425503  2 H  s                107     -6.425503  3 H  s          

 Vector   51  Occ=0.000000D+00  E= 2.083211D+00  Symmetry=e"
              MO Center=  1.7D-01,  2.5D-02,  4.8D-16, r^2= 2.1D+00
   Bfn.  Coefficient  Atom+Function         Bfn.  Coefficient  Atom+Function  
  ----- ------------  ---------------      ----- ------------  ---------------
    28     16.299346  1 B  dyz               60     -9.187497  1 B  gxxyz      
    67     -9.187497  1 B  gyyyz             69     -8.803024  1 B  gyzzz      
    26      8.133536  1 B  dxz               22     -5.072847  1 B  dyz        
    58     -4.584652  1 B  gxxxz             63     -4.584652  1 B  gxyyz      
    65     -4.392797  1 B  gxzzz             50      3.725630  1 B  fxyz       

 Vector   52  Occ=0.000000D+00  E= 2.083211D+00  Symmetry=e"
              MO Center= -1.7D-01, -2.5D-02,  8.0D-15, r^2= 2.1D+00
   Bfn.  Coefficient  Atom+Function         Bfn.  Coefficient  Atom+Function  
  ----- ------------  ---------------      ----- ------------  ---------------
    26     16.299346  1 B  dxz               58     -9.187497  1 B  gxxxz      
    63     -9.187497  1 B  gxyyz             65     -8.803024  1 B  gxzzz      
    28     -8.133536  1 B  dyz               20     -5.072847  1 B  dxz        
    60      4.584652  1 B  gxxyz             67      4.584652  1 B  gyyyz      
    69      4.392797  1 B  gyzzz            162     -2.688665  4 H  dxz        

 Vector   53  Occ=0.000000D+00  E= 2.180478D+00  Symmetry=e'
              MO Center= -9.6D-02, -9.6D-02,  6.5D-17, r^2= 2.4D+00
   Bfn.  Coefficient  Atom+Function         Bfn.  Coefficient  Atom+Function  
  ----- ------------  ---------------      ----- ------------  ---------------
    25     13.595086  1 B  dxy               57    -12.171513  1 B  gxxxy      
    62    -12.171513  1 B  gxyyy             72     11.373076  2 H  s          
    64    -11.296498  1 B  gxyzz             19     -8.171406  1 B  dxy        
   107     -5.686538  3 H  s                142     -5.686538  4 H  s          
     9     -5.139717  1 B  px                10     -5.139717  1 B  py         

 Vector   54  Occ=0.000000D+00  E= 2.184820D+00  Symmetry=e'
              MO Center=  1.0D-01,  1.0D-01, -7.9D-15, r^2= 2.4D+00
   Bfn.  Coefficient  Atom+Function         Bfn.  Coefficient  Atom+Function  
  ----- ------------  ---------------      ----- ------------  ---------------
   107      9.001638  3 H  s                142     -9.001638  4 H  s          
    24     -7.245299  1 B  dxx               27      7.245299  1 B  dyy        
    56      6.140695  1 B  gxxxx             66     -6.140695  1 B  gyyyy      
    61      5.708776  1 B  gxxzz             68     -5.708776  1 B  gyyzz      
   108     -5.364951  3 H  s                143      5.364951  4 H  s          

 Vector   55  Occ=0.000000D+00  E= 2.202802D+00  Symmetry=a1"
              MO Center= -5.0D-15, -1.5D-15,  1.1D-15, r^2= 1.9D+00
   Bfn.  Coefficient  Atom+Function         Bfn.  Coefficient  Atom+Function  
  ----- ------------  ---------------      ----- ------------  ---------------
    60      8.581632  1 B  gxxyz             63     -8.581632  1 B  gxyyz      
   127      4.435030  3 H  dxz              164     -4.435030  4 H  dyz        
    92     -3.246667  2 H  dxz               94      3.246667  2 H  dyz        
    58      2.860544  1 B  gxxxz             67     -2.860544  1 B  gyyyz      
   129      1.188363  3 H  dyz              162     -1.188363  4 H  dxz        

 Vector   56  Occ=0.000000D+00  E= 2.344958D+00  Symmetry=a2"
              MO Center= -8.5D-14,  8.9D-14, -2.1D-17, r^2= 2.0D+00
   Bfn.  Coefficient  Atom+Function         Bfn.  Coefficient  Atom+Function  
  ----- ------------  ---------------      ----- ------------  ---------------
    14      5.176092  1 B  pz                11      4.636597  1 B  pz         
    80      3.069918  2 H  pz               115      3.069918  3 H  pz         
   150      3.069918  4 H  pz                83     -2.313135  2 H  pz         
   118     -2.313135  3 H  pz               153     -2.313135  4 H  pz         
   129     -1.849551  3 H  dyz              162     -1.849551  4 H  dxz        

 Vector   57  Occ=0.000000D+00  E= 2.440739D+00  Symmetry=e"
              MO Center= -2.6D-02, -4.7D-02, -1.9D-16, r^2= 1.8D+00
   Bfn.  Coefficient  Atom+Function         Bfn.  Coefficient  Atom+Function  
  ----- ------------  ---------------      ----- ------------  ---------------
    28      7.001742  1 B  dyz               26     -5.284644  1 B  dxz        
   115     -4.816096  3 H  pz               150      4.096920  4 H  pz         
    60     -4.033596  1 B  gxxyz             67     -4.033596  1 B  gyyyz      
    69     -3.940010  1 B  gyzzz             58      3.044402  1 B  gxxxz      
    63      3.044402  1 B  gxyyz             65      2.973767  1 B  gxzzz      

 Vector   58  Occ=0.000000D+00  E= 2.440739D+00  Symmetry=e"
              MO Center=  2.6D-02,  4.7D-02, -8.4D-16, r^2= 1.8D+00
   Bfn.  Coefficient  Atom+Function         Bfn.  Coefficient  Atom+Function  
  ----- ------------  ---------------      ----- ------------  ---------------
    26      7.001742  1 B  dxz               28      5.284644  1 B  dyz        
    80      5.145933  2 H  pz                58     -4.033596  1 B  gxxxz      
    63     -4.033596  1 B  gxyyz             65     -3.940010  1 B  gxzzz      
   150     -3.195791  4 H  pz                50     -3.147029  1 B  fxyz       
    60     -3.044402  1 B  gxxyz             67     -3.044402  1 B  gyyyz      

 Vector   59  Occ=0.000000D+00  E= 2.497972D+00  Symmetry=a1'
              MO Center=  2.7D-13,  6.9D-13,  1.8D-17, r^2= 2.2D+00
   Bfn.  Coefficient  Atom+Function         Bfn.  Coefficient  Atom+Function  
  ----- ------------  ---------------      ----- ------------  ---------------
    29    -14.125955  1 B  dzz                4     13.822036  1 B  s          
     5    -11.507787  1 B  s                 74      8.110742  2 H  s          
   109      8.110742  3 H  s                144      8.110742  4 H  s          
    24     -6.010789  1 B  dxx               27     -6.010789  1 B  dyy        
    30     -5.356220  1 B  dxx               33     -5.356220  1 B  dyy        

 Vector   60  Occ=0.000000D+00  E= 2.625044D+00  Symmetry=e'
              MO Center= -1.3D-01, -1.3D-01,  1.0D-15, r^2= 2.4D+00
   Bfn.  Coefficient  Atom+Function         Bfn.  Coefficient  Atom+Function  
  ----- ------------  ---------------      ----- ------------  ---------------
   107     16.153286  3 H  s                142    -16.153286  4 H  s          
     9    -14.240676  1 B  px                10     14.240676  1 B  py         
   108    -12.688505  3 H  s                143     12.688505  4 H  s          
    12    -10.462815  1 B  px                13     10.462815  1 B  py         
    51      8.776111  1 B  fxzz              54     -8.776111  1 B  fyzz       

 Vector   61  Occ=0.000000D+00  E= 2.633254D+00  Symmetry=e'
              MO Center=  1.3D-01,  1.3D-01,  9.8D-16, r^2= 2.4D+00
   Bfn.  Coefficient  Atom+Function         Bfn.  Coefficient  Atom+Function  
  ----- ------------  ---------------      ----- ------------  ---------------
    72     19.124902  2 H  s                  9    -15.270030  1 B  px         
    10    -15.270030  1 B  py                25     15.040501  1 B  dxy        
    73    -12.179372  2 H  s                 57    -11.519005  1 B  gxxxy      
    62    -11.519005  1 B  gxyyy             12    -10.593391  1 B  px         
    13    -10.593391  1 B  py                64    -10.094400  1 B  gxyzz      

 Vector   62  Occ=0.000000D+00  E= 2.675191D+00  Symmetry=a2'
              MO Center=  3.2D-12,  1.5D-12, -4.2D-17, r^2= 2.3D+00
   Bfn.  Coefficient  Atom+Function         Bfn.  Coefficient  Atom+Function  
  ----- ------------  ---------------      ----- ------------  ---------------
    47     16.844553  1 B  fxxy              49    -16.844553  1 B  fxyy       
   116      9.718360  3 H  px               152     -9.718360  4 H  py         
    81     -7.114333  2 H  px                82      7.114333  2 H  py         
    46      5.614851  1 B  fxxx              52     -5.614851  1 B  fyyy       
   126     -3.719328  3 H  dxy              161      3.719328  4 H  dxy        

 Vector   63  Occ=0.000000D+00  E= 2.774139D+00  Symmetry=e'
              MO Center=  1.5D-01,  1.5D-01, -3.1D-16, r^2= 2.1D+00
   Bfn.  Coefficient  Atom+Function         Bfn.  Coefficient  Atom+Function  
  ----- ------------  ---------------      ----- ------------  ---------------
    25     16.316498  1 B  dxy               59     10.422735  1 B  gxxyy      
   116      6.667729  3 H  px               152      6.667729  4 H  py         
    46     -6.277100  1 B  fxxx              47     -6.277100  1 B  fxxy       
    49     -6.277100  1 B  fxyy              52     -6.277100  1 B  fyyy       
    57     -5.522247  1 B  gxxxy             62     -5.522247  1 B  gxyyy      

 Vector   64  Occ=0.000000D+00  E= 2.776471D+00  Symmetry=e'
              MO Center= -1.5D-01, -1.5D-01, -7.8D-17, r^2= 2.1D+00
   Bfn.  Coefficient  Atom+Function         Bfn.  Coefficient  Atom+Function  
  ----- ------------  ---------------      ----- ------------  ---------------
    24      8.327216  1 B  dxx               27     -8.327216  1 B  dyy        
    57     -7.030498  1 B  gxxxy             62      7.030498  1 B  gxyyy      
    46      6.082686  1 B  fxxx              47     -6.082686  1 B  fxxy       
    49      6.082686  1 B  fxyy              52     -6.082686  1 B  fyyy       
    81     -5.629951  2 H  px                82      5.629951  2 H  py         

 Vector   65  Occ=0.000000D+00  E= 2.956410D+00  Symmetry=e'
              MO Center= -4.4D-02, -4.4D-02, -3.3D-16, r^2= 2.2D+00
   Bfn.  Coefficient  Atom+Function         Bfn.  Coefficient  Atom+Function  
  ----- ------------  ---------------      ----- ------------  ---------------
    73     11.015743  2 H  s                  9     10.649636  1 B  px         
    10     10.649636  1 B  py                12     -8.961022  1 B  px         
    13     -8.961022  1 B  py                72     -7.479578  2 H  s          
    74      7.459061  2 H  s                 64      5.633422  1 B  gxyzz      
   108     -5.507872  3 H  s                143     -5.507872  4 H  s          

 Vector   66  Occ=0.000000D+00  E= 2.956710D+00  Symmetry=e'
              MO Center=  4.4D-02,  4.4D-02,  1.3D-15, r^2= 2.2D+00
   Bfn.  Coefficient  Atom+Function         Bfn.  Coefficient  Atom+Function  
  ----- ------------  ---------------      ----- ------------  ---------------
     9     10.335905  1 B  px                10    -10.335905  1 B  py         
   108      9.958135  3 H  s                143     -9.958135  4 H  s          
    12     -9.043139  1 B  px                13      9.043139  1 B  py         
   109      6.505564  3 H  s                144     -6.505564  4 H  s          
   107     -6.237743  3 H  s                142      6.237743  4 H  s          

 Vector   67  Occ=0.000000D+00  E= 2.991176D+00  Symmetry=a1'
              MO Center=  5.9D-12,  5.6D-12, -3.6D-17, r^2= 2.1D+00
   Bfn.  Coefficient  Atom+Function         Bfn.  Coefficient  Atom+Function  
  ----- ------------  ---------------      ----- ------------  ---------------
     4     24.839813  1 B  s                 29    -14.522870  1 B  dzz        
    24    -10.412366  1 B  dxx               27    -10.412366  1 B  dyy        
    72     -7.075270  2 H  s                107     -7.075270  3 H  s          
   142     -7.075270  4 H  s                 47      6.796117  1 B  fxxy       
    49      6.796117  1 B  fxyy               3     -5.670139  1 B  s          

 Vector   68  Occ=0.000000D+00  E= 3.020882D+00  Symmetry=e"
              MO Center=  5.4D-02, -3.2D-02, -8.5D-16, r^2= 2.0D+00
   Bfn.  Coefficient  Atom+Function         Bfn.  Coefficient  Atom+Function  
  ----- ------------  ---------------      ----- ------------  ---------------
    26     16.573784  1 B  dxz              153      7.759931  4 H  pz         
    65     -6.587432  1 B  gxzzz             58     -6.456270  1 B  gxxxz      
    63     -6.456270  1 B  gxyyz             50      6.194113  1 B  fxyz       
    83     -4.779981  2 H  pz                48     -4.017555  1 B  fxxz       
    53      4.017555  1 B  fyyz             127      3.905475  3 H  dxz        

 Vector   69  Occ=0.000000D+00  E= 3.020882D+00  Symmetry=e"
              MO Center= -5.4D-02,  3.2D-02,  1.7D-16, r^2= 2.0D+00
   Bfn.  Coefficient  Atom+Function         Bfn.  Coefficient  Atom+Function  
  ----- ------------  ---------------      ----- ------------  ---------------
    28     16.573784  1 B  dyz               50      8.035111  1 B  fxyz       
   118      7.239921  3 H  pz                69     -6.587432  1 B  gyzzz      
    60     -6.456270  1 B  gxxyz             67     -6.456270  1 B  gyyyz      
    83     -6.200674  2 H  pz                40      4.586099  1 B  fxyz       
   164      3.936808  4 H  dyz               94      3.680082  2 H  dyz        

 Vector   70  Occ=0.000000D+00  E= 3.085930D+00  Symmetry=a2"
              MO Center= -5.0D-14,  1.4D-13, -3.9D-17, r^2= 1.8D+00
   Bfn.  Coefficient  Atom+Function         Bfn.  Coefficient  Atom+Function  
  ----- ------------  ---------------      ----- ------------  ---------------
    11     21.935662  1 B  pz                80     -8.993143  2 H  pz         
   115     -8.993143  3 H  pz               150     -8.993143  4 H  pz         
    14      8.854258  1 B  pz                83     -4.477520  2 H  pz         
   118     -4.477520  3 H  pz               153     -4.477520  4 H  pz         
    60      4.361260  1 B  gxxyz             63      4.361260  1 B  gxyyz      

 Vector   71  Occ=0.000000D+00  E= 3.162503D+00  Symmetry=e'
              MO Center=  4.4D-03,  4.4D-03,  1.3D-16, r^2= 1.7D+00
   Bfn.  Coefficient  Atom+Function         Bfn.  Coefficient  Atom+Function  
  ----- ------------  ---------------      ----- ------------  ---------------
    72     19.719915  2 H  s                 73    -13.465312  2 H  s          
     9    -12.600433  1 B  px                10    -12.600433  1 B  py         
    59    -11.318627  1 B  gxxyy            107     -9.859958  3 H  s          
   142     -9.859958  4 H  s                108      6.732656  3 H  s          
   143      6.732656  4 H  s                 57     -6.683583  1 B  gxxxy      

 Vector   72  Occ=0.000000D+00  E= 3.163693D+00  Symmetry=e'
              MO Center= -2.8D-03, -2.8D-03, -4.3D-16, r^2= 1.7D+00
   Bfn.  Coefficient  Atom+Function         Bfn.  Coefficient  Atom+Function  
  ----- ------------  ---------------      ----- ------------  ---------------
   107     16.849281  3 H  s                142    -16.849281  4 H  s          
     9    -12.352212  1 B  px                10     12.352212  1 B  py         
   108    -12.133216  3 H  s                143     12.133216  4 H  s          
    57     -7.542236  1 B  gxxxy             62      7.542236  1 B  gxyyy      
   117     -7.094113  3 H  py               151      7.094113  4 H  px         

 Vector   73  Occ=0.000000D+00  E= 3.335118D+00  Symmetry=a2"
              MO Center= -1.1D-14,  3.5D-14, -5.3D-17, r^2= 1.5D+00
   Bfn.  Coefficient  Atom+Function         Bfn.  Coefficient  Atom+Function  
  ----- ------------  ---------------      ----- ------------  ---------------
    60      8.583342  1 B  gxxyz             63      8.583342  1 B  gxyyz      
    48      8.419703  1 B  fxxz              53      8.419703  1 B  fyyz       
    11      6.879028  1 B  pz                83     -3.657436  2 H  pz         
   118     -3.657436  3 H  pz               153     -3.657436  4 H  pz         
    55      3.511209  1 B  fzzz              14     -3.292951  1 B  pz         

 Vector   74  Occ=0.000000D+00  E= 3.430813D+00  Symmetry=a2'
              MO Center=  3.2D-13,  3.4D-14, -5.4D-17, r^2= 1.9D+00
   Bfn.  Coefficient  Atom+Function         Bfn.  Coefficient  Atom+Function  
  ----- ------------  ---------------      ----- ------------  ---------------
   113     10.388106  3 H  px               149    -10.388106  4 H  py         
    78     -7.604622  2 H  px                79      7.604622  2 H  py         
    37      7.416739  1 B  fxxy              39     -7.416739  1 B  fxyy       
   116      6.019651  3 H  px               152     -6.019651  4 H  py         
    47      5.789077  1 B  fxxy              49     -5.789077  1 B  fxyy       

 Vector   75  Occ=0.000000D+00  E= 3.612136D+00  Symmetry=e'
              MO Center= -9.8D-02, -9.8D-02,  1.2D-15, r^2= 1.6D+00
   Bfn.  Coefficient  Atom+Function         Bfn.  Coefficient  Atom+Function  
  ----- ------------  ---------------      ----- ------------  ---------------
   107     26.122526  3 H  s                142    -26.122526  4 H  s          
   108    -22.938766  3 H  s                143     22.938766  4 H  s          
     9    -21.006661  1 B  px                10     21.006661  1 B  py         
    61     10.176980  1 B  gxxzz             68    -10.176980  1 B  gyyzz      
   114      7.883078  3 H  py               148     -7.883078  4 H  px         

 Vector   76  Occ=0.000000D+00  E= 3.614526D+00  Symmetry=e'
              MO Center=  9.8D-02,  9.8D-02,  1.7D-15, r^2= 1.6D+00
   Bfn.  Coefficient  Atom+Function         Bfn.  Coefficient  Atom+Function  
  ----- ------------  ---------------      ----- ------------  ---------------
    72     30.320667  2 H  s                 73    -24.933125  2 H  s          
     9    -21.537680  1 B  px                10    -21.537680  1 B  py         
    64    -20.342703  1 B  gxyzz            107    -15.160333  3 H  s          
   142    -15.160333  4 H  s                108     12.466563  3 H  s          
   143     12.466563  4 H  s                 95      8.071046  2 H  dzz        

 Vector   77  Occ=0.000000D+00  E= 3.652666D+00  Symmetry=a1'
              MO Center= -2.8D-12,  1.1D-11,  1.6D-17, r^2= 1.8D+00
   Bfn.  Coefficient  Atom+Function         Bfn.  Coefficient  Atom+Function  
  ----- ------------  ---------------      ----- ------------  ---------------
     4     21.380282  1 B  s                 59     20.094648  1 B  gxxyy      
    61     14.766875  1 B  gxxzz             68     14.766875  1 B  gyyzz      
    24    -11.929573  1 B  dxx               27    -11.929573  1 B  dyy        
    56     10.047324  1 B  gxxxx             66     10.047324  1 B  gyyyy      
    29     -9.569856  1 B  dzz               72     -8.520313  2 H  s          

 Vector   78  Occ=0.000000D+00  E= 3.686335D+00  Symmetry=e"
              MO Center= -8.5D-02, -2.7D-02, -1.5D-15, r^2= 1.4D+00
   Bfn.  Coefficient  Atom+Function         Bfn.  Coefficient  Atom+Function  
  ----- ------------  ---------------      ----- ------------  ---------------
    60      6.270819  1 B  gxxyz             67      6.270819  1 B  gyyyz      
    58      3.820826  1 B  gxxxz             63      3.820826  1 B  gxyyz      
    69     -3.236081  1 B  gyzzz            164     -2.620574  4 H  dyz        
    28      2.449377  1 B  dyz               65     -1.971752  1 B  gxzzz      
   129     -1.958821  3 H  dyz               94     -1.940510  2 H  dyz        

 Vector   79  Occ=0.000000D+00  E= 3.686335D+00  Symmetry=e"
              MO Center=  8.5D-02,  2.7D-02, -8.7D-16, r^2= 1.4D+00
   Bfn.  Coefficient  Atom+Function         Bfn.  Coefficient  Atom+Function  
  ----- ------------  ---------------      ----- ------------  ---------------
    58      6.270819  1 B  gxxxz             63      6.270819  1 B  gxyyz      
    60     -3.820826  1 B  gxxyz             67     -3.820826  1 B  gyyyz      
    65     -3.236081  1 B  gxzzz             26      2.449377  1 B  dxz        
    92     -2.406094  2 H  dxz              127     -2.387782  3 H  dxz        
    69      1.971752  1 B  gyzzz            162     -1.726029  4 H  dxz        

 Vector   80  Occ=0.000000D+00  E= 3.796166D+00  Symmetry=a1'
              MO Center= -1.1D-12, -5.4D-13, -2.9D-17, r^2= 2.2D+00
   Bfn.  Coefficient  Atom+Function         Bfn.  Coefficient  Atom+Function  
  ----- ------------  ---------------      ----- ------------  ---------------
     4     33.656772  1 B  s                 24    -28.054409  1 B  dxx        
    27    -28.054409  1 B  dyy               59     18.359376  1 B  gxxyy      
    29    -10.065202  1 B  dzz               56      9.179688  1 B  gxxxx      
    66      9.179688  1 B  gyyyy            114     -6.239976  3 H  py         
   148     -6.239976  4 H  px                47     -5.378926  1 B  fxxy       

 Vector   81  Occ=0.000000D+00  E= 3.872431D+00  Symmetry=e'
              MO Center=  1.2D-01,  1.2D-01,  4.6D-17, r^2= 1.5D+00
   Bfn.  Coefficient  Atom+Function         Bfn.  Coefficient  Atom+Function  
  ----- ------------  ---------------      ----- ------------  ---------------
    25     20.385423  1 B  dxy               73     17.816412  2 H  s          
    72    -12.736591  2 H  s                 64    -11.553976  1 B  gxyzz      
   108     -8.908206  3 H  s                143     -8.908206  4 H  s          
     9      8.460854  1 B  px                10      8.460854  1 B  py         
   107      6.368296  3 H  s                142      6.368296  4 H  s          

 Vector   82  Occ=0.000000D+00  E= 3.882801D+00  Symmetry=e'
              MO Center= -1.2D-01, -1.2D-01, -3.1D-17, r^2= 1.5D+00
   Bfn.  Coefficient  Atom+Function         Bfn.  Coefficient  Atom+Function  
  ----- ------------  ---------------      ----- ------------  ---------------
   108     13.955312  3 H  s                143    -13.955312  4 H  s          
   107    -11.730928  3 H  s                142     11.730928  4 H  s          
    24    -10.187737  1 B  dxx               27     10.187737  1 B  dyy        
     9      9.278574  1 B  px                10     -9.278574  1 B  py         
    12     -5.739212  1 B  px                13      5.739212  1 B  py         

 Vector   83  Occ=0.000000D+00  E= 3.899544D+00  Symmetry=a1'
              MO Center=  8.1D-13,  5.5D-13,  9.6D-17, r^2= 1.8D+00
   Bfn.  Coefficient  Atom+Function         Bfn.  Coefficient  Atom+Function  
  ----- ------------  ---------------      ----- ------------  ---------------
     4     22.576680  1 B  s                 29    -21.268537  1 B  dzz        
    61     13.649828  1 B  gxxzz             68     13.649828  1 B  gyyzz      
    72     -9.384608  2 H  s                107     -9.384608  3 H  s          
   142     -9.384608  4 H  s                 70      8.436194  1 B  gzzzz      
    47      6.081464  1 B  fxxy              49      6.081464  1 B  fxyy       

 Vector   84  Occ=0.000000D+00  E= 3.958516D+00  Symmetry=e"
              MO Center= -8.8D-03, -3.8D-02, -5.3D-16, r^2= 1.5D+00
   Bfn.  Coefficient  Atom+Function         Bfn.  Coefficient  Atom+Function  
  ----- ------------  ---------------      ----- ------------  ---------------
    60    -12.581255  1 B  gxxyz             67    -12.581255  1 B  gyyyz      
    28     12.136274  1 B  dyz               69    -12.127719  1 B  gyzzz      
   115     -8.780283  3 H  pz                22     -7.064420  1 B  dyz        
    58      6.996625  1 B  gxxxz             63      6.996625  1 B  gxyyz      
    26     -6.749165  1 B  dxz               65      6.744407  1 B  gxzzz      

 Vector   85  Occ=0.000000D+00  E= 3.958516D+00  Symmetry=e"
              MO Center=  8.8D-03,  3.8D-02,  8.8D-19, r^2= 1.5D+00
   Bfn.  Coefficient  Atom+Function         Bfn.  Coefficient  Atom+Function  
  ----- ------------  ---------------      ----- ------------  ---------------
    58    -12.581255  1 B  gxxxz             63    -12.581255  1 B  gxyyz      
    26     12.136274  1 B  dxz               65    -12.127719  1 B  gxzzz      
    80      8.704972  2 H  pz                20     -7.064420  1 B  dxz        
    60     -6.996625  1 B  gxxyz             67     -6.996625  1 B  gyyyz      
    28      6.749165  1 B  dyz               69     -6.744407  1 B  gyzzz      

 Vector   86  Occ=0.000000D+00  E= 4.207808D+00  Symmetry=a1'
              MO Center=  5.9D-13,  2.4D-13,  2.4D-17, r^2= 1.6D+00
   Bfn.  Coefficient  Atom+Function         Bfn.  Coefficient  Atom+Function  
  ----- ------------  ---------------      ----- ------------  ---------------
    59     17.451795  1 B  gxxyy             56      8.725898  1 B  gxxxx      
    66      8.725898  1 B  gyyyy             29     -6.705504  1 B  dzz        
   125     -6.448233  3 H  dxx              163     -6.448233  4 H  dyy        
    91      6.251164  2 H  dxy               72     -5.498205  2 H  s          
   107     -5.498205  3 H  s                142     -5.498205  4 H  s          

 Vector   87  Occ=0.000000D+00  E= 4.319816D+00  Symmetry=a2"
              MO Center= -4.5D-15, -5.0D-14,  5.0D-18, r^2= 1.2D+00
   Bfn.  Coefficient  Atom+Function         Bfn.  Coefficient  Atom+Function  
  ----- ------------  ---------------      ----- ------------  ---------------
    11      6.966996  1 B  pz                60     -6.370086  1 B  gxxyz      
    63     -6.370086  1 B  gxyyz             80     -3.598385  2 H  pz         
   115     -3.598385  3 H  pz               150     -3.598385  4 H  pz         
   129     -3.045355  3 H  dyz              162     -3.045355  4 H  dxz        
    38     -2.423287  1 B  fxxz              43     -2.423287  1 B  fyyz       

 Vector   88  Occ=0.000000D+00  E= 4.339080D+00  Symmetry=e'
              MO Center= -9.7D-02, -9.7D-02, -7.0D-17, r^2= 1.6D+00
   Bfn.  Coefficient  Atom+Function         Bfn.  Coefficient  Atom+Function  
  ----- ------------  ---------------      ----- ------------  ---------------
    64    -18.217573  1 B  gxyzz             25     17.702151  1 B  dxy        
    57    -17.374810  1 B  gxxxy             62    -17.374810  1 B  gxyyy      
    72     12.355632  2 H  s                 19    -10.280882  1 B  dxy        
   107     -6.177816  3 H  s                142     -6.177816  4 H  s          
     9     -4.386703  1 B  px                10     -4.386703  1 B  py         

 Vector   89  Occ=0.000000D+00  E= 4.354492D+00  Symmetry=e'
              MO Center=  9.7D-02,  9.7D-02,  6.6D-17, r^2= 1.6D+00
   Bfn.  Coefficient  Atom+Function         Bfn.  Coefficient  Atom+Function  
  ----- ------------  ---------------      ----- ------------  ---------------
    24      9.475479  1 B  dxx               27     -9.475479  1 B  dyy        
   107     -9.421473  3 H  s                142      9.421473  4 H  s          
    61     -9.296904  1 B  gxxzz             68      9.296904  1 B  gyyzz      
    56     -8.678868  1 B  gxxxx             66      8.678868  1 B  gyyyy      
    18     -5.066553  1 B  dxx               21      5.066553  1 B  dyy        

 Vector   90  Occ=0.000000D+00  E= 4.500810D+00  Symmetry=a1"
              MO Center=  1.6D-13,  1.7D-13,  9.3D-17, r^2= 1.3D+00
   Bfn.  Coefficient  Atom+Function         Bfn.  Coefficient  Atom+Function  
  ----- ------------  ---------------      ----- ------------  ---------------
    60     19.194812  1 B  gxxyz             63    -19.194812  1 B  gxyyz      
    58      6.398271  1 B  gxxxz             67     -6.398271  1 B  gyyyz      
   127      5.866159  3 H  dxz              164     -5.866159  4 H  dyz        
    92     -4.294326  2 H  dxz               94      4.294326  2 H  dyz        
   129      1.571832  3 H  dyz              162     -1.571832  4 H  dxz        

 Vector   91  Occ=0.000000D+00  E= 4.695191D+00  Symmetry=e"
              MO Center=  2.3D-02,  3.6D-02,  1.0D-16, r^2= 1.2D+00
[...]

 Vector  151  Occ=0.000000D+00  E= 1.129899D+01  Symmetry=e'
              MO Center= -1.5D-01, -1.5D-01,  6.6D-18, r^2= 8.6D-01
   Bfn.  Coefficient  Atom+Function         Bfn.  Coefficient  Atom+Function  
  ----- ------------  ---------------      ----- ------------  ---------------
   114     11.220831  3 H  py               148    -11.220831  4 H  px         
   108     -8.297967  3 H  s                143      8.297967  4 H  s          
   132     -6.792556  3 H  fxxy             169      6.792556  4 H  fxyy       
   107      6.392084  3 H  s                142     -6.392084  4 H  s          
    78      6.153598  2 H  px                79     -6.153598  2 H  py         

 Vector  152  Occ=0.000000D+00  E= 1.129933D+01  Symmetry=e'
              MO Center=  1.5D-01,  1.5D-01, -1.2D-17, r^2= 8.6D-01
   Bfn.  Coefficient  Atom+Function         Bfn.  Coefficient  Atom+Function  
  ----- ------------  ---------------      ----- ------------  ---------------
    73      9.093987  2 H  s                113     -8.916623  3 H  px         
   149     -8.916623  4 H  py                78      8.610189  2 H  px         
    79      8.610189  2 H  py                72     -7.561846  2 H  s          
     9      6.064768  1 B  px                10      6.064768  1 B  py         
    96     -4.612327  2 H  fxxx             102     -4.612327  2 H  fyyy       

 Vector  153  Occ=0.000000D+00  E= 1.144103D+01  Symmetry=a2'
              MO Center= -1.9D-13,  2.3D-13, -9.7D-22, r^2= 8.6D-01
   Bfn.  Coefficient  Atom+Function         Bfn.  Coefficient  Atom+Function  
  ----- ------------  ---------------      ----- ------------  ---------------
   134      3.810159  3 H  fxyy             167     -3.810159  4 H  fxxy       
    37      3.236398  1 B  fxxy              39     -3.236398  1 B  fxyy       
    47     -2.695623  1 B  fxxy              49      2.695623  1 B  fxyy       
   126      2.413622  3 H  dxy              161     -2.413622  4 H  dxy        
    96     -2.288310  2 H  fxxx             102      2.288310  2 H  fyyy       

 Vector  154  Occ=0.000000D+00  E= 1.181133D+01  Symmetry=e"
              MO Center= -2.1D-01, -2.7D-02, -1.7D-16, r^2= 7.7D-01
   Bfn.  Coefficient  Atom+Function         Bfn.  Coefficient  Atom+Function  
  ----- ------------  ---------------      ----- ------------  ---------------
    20     12.666243  1 B  dxz              150     11.079348  4 H  pz         
   115     -7.433917  3 H  pz                22     -6.223701  1 B  dyz        
    58      6.138915  1 B  gxxxz             63      6.138915  1 B  gxyyz      
   162      5.382322  4 H  dxz               38     -3.853213  1 B  fxxz       
    43      3.853213  1 B  fyyz             129     -3.832354  3 H  dyz        

 Vector  155  Occ=0.000000D+00  E= 1.181133D+01  Symmetry=e"
              MO Center=  2.1D-01,  2.7D-02,  3.3D-17, r^2= 7.7D-01
   Bfn.  Coefficient  Atom+Function         Bfn.  Coefficient  Atom+Function  
  ----- ------------  ---------------      ----- ------------  ---------------
    22     12.666243  1 B  dyz               80    -10.688638  2 H  pz         
   115      8.501356  3 H  pz                40      7.706427  1 B  fxyz       
    20      6.223701  1 B  dxz               60      6.138915  1 B  gxxyz      
    67      6.138915  1 B  gyyyz             92      4.065547  2 H  dxz        
   129      3.843666  3 H  dyz               94      3.439765  2 H  dyz        

 Vector  156  Occ=0.000000D+00  E= 1.192563D+01  Symmetry=a1'
              MO Center=  3.9D-13,  3.2D-13,  3.9D-16, r^2= 8.1D-01
   Bfn.  Coefficient  Atom+Function         Bfn.  Coefficient  Atom+Function  
  ----- ------------  ---------------      ----- ------------  ---------------
    37      8.292658  1 B  fxxy              39      8.292658  1 B  fxyy       
     4      6.589987  1 B  s                 18     -5.673068  1 B  dxx        
    21     -5.673068  1 B  dyy               24     -5.652744  1 B  dxx        
    27     -5.652744  1 B  dyy               91     -2.921029  2 H  dxy        
     2      2.822984  1 B  s                125      2.822936  3 H  dxx        

 Vector  157  Occ=0.000000D+00  E= 1.253259D+01  Symmetry=a2"
              MO Center=  4.5D-14, -2.9D-14, -1.7D-17, r^2= 5.5D-01
   Bfn.  Coefficient  Atom+Function         Bfn.  Coefficient  Atom+Function  
  ----- ------------  ---------------      ----- ------------  ---------------
    38      9.379714  1 B  fxxz              43      9.379714  1 B  fyyz       
    11     -8.374367  1 B  pz                45      7.466402  1 B  fzzz       
     8      5.059796  1 B  pz                48      4.357821  1 B  fxxz       
    53      4.357821  1 B  fyyz              14     -4.172815  1 B  pz         
    55      3.712232  1 B  fzzz              80     -2.149976  2 H  pz         

 Vector  158  Occ=0.000000D+00  E= 1.337260D+01  Symmetry=a2'
              MO Center=  7.0D-13,  4.7D-13,  4.0D-19, r^2= 1.0D+00
   Bfn.  Coefficient  Atom+Function         Bfn.  Coefficient  Atom+Function  
  ----- ------------  ---------------      ----- ------------  ---------------
    37     24.847444  1 B  fxxy              39    -24.847444  1 B  fxyy       
   113    -10.822398  3 H  px               149     10.822398  4 H  py         
   136     10.570344  3 H  fxzz             174    -10.570344  4 H  fyzz       
   131      8.689545  3 H  fxxx             172     -8.689545  4 H  fyyy       
    36      8.282481  1 B  fxxx              42     -8.282481  1 B  fyyy       

 Vector  159  Occ=0.000000D+00  E= 1.346914D+01  Symmetry=e'
              MO Center=  1.8D-01,  1.8D-01, -7.6D-19, r^2= 8.0D-01
   Bfn.  Coefficient  Atom+Function         Bfn.  Coefficient  Atom+Function  
  ----- ------------  ---------------      ----- ------------  ---------------
    78     11.916915  2 H  px                79    -11.916915  2 H  py         
     9     11.166581  1 B  px                10    -11.166581  1 B  py         
   108     10.638162  3 H  s                143    -10.638162  4 H  s          
   113     10.376354  3 H  px               149    -10.376354  4 H  py         
   107     -7.868345  3 H  s                142      7.868345  4 H  s          

 Vector  160  Occ=0.000000D+00  E= 1.348295D+01  Symmetry=e'
              MO Center= -1.8D-01, -1.8D-01, -8.9D-18, r^2= 7.9D-01
   Bfn.  Coefficient  Atom+Function         Bfn.  Coefficient  Atom+Function  
  ----- ------------  ---------------      ----- ------------  ---------------
     9     11.971681  1 B  px                10     11.971681  1 B  py         
   113     10.798944  3 H  px               149     10.798944  4 H  py         
    73     10.567646  2 H  s                 64     10.507416  1 B  gxyzz      
    57      9.345644  1 B  gxxxy             62      9.345644  1 B  gxyyy      
    72     -8.009231  2 H  s                 19     -7.880105  1 B  dxy        

 Vector  161  Occ=0.000000D+00  E= 1.477580D+01  Symmetry=e'
              MO Center= -1.2D-01, -1.2D-01,  7.3D-18, r^2= 1.3D+00
   Bfn.  Coefficient  Atom+Function         Bfn.  Coefficient  Atom+Function  
  ----- ------------  ---------------      ----- ------------  ---------------
   113     74.171194  3 H  px               149     74.171194  4 H  py         
    72    -61.807523  2 H  s                 57     61.488353  1 B  gxxxy      
    62     61.488353  1 B  gxyyy             64     51.484417  1 B  gxyzz      
    19     50.401589  1 B  dxy              114     39.117918  3 H  py         
   148     39.117918  4 H  px               107     30.903761  3 H  s          

 Vector  162  Occ=0.000000D+00  E= 1.484050D+01  Symmetry=e'
              MO Center=  1.1D-01,  1.1D-01,  8.4D-18, r^2= 1.3D+00
   Bfn.  Coefficient  Atom+Function         Bfn.  Coefficient  Atom+Function  
  ----- ------------  ---------------      ----- ------------  ---------------
    78     65.760121  2 H  px                79    -65.760121  2 H  py         
   113     53.473610  3 H  px               149    -53.473610  4 H  py         
   107    -51.671872  3 H  s                142     51.671872  4 H  s          
    56    -30.769235  1 B  gxxxx             66     30.769235  1 B  gyyyy      
    61    -25.919133  1 B  gxxzz             68     25.919133  1 B  gyyzz      

 Vector  163  Occ=0.000000D+00  E= 1.553780D+01  Symmetry=e'
              MO Center=  1.1D-01,  1.1D-01,  3.5D-18, r^2= 5.8D-01
   Bfn.  Coefficient  Atom+Function         Bfn.  Coefficient  Atom+Function  
  ----- ------------  ---------------      ----- ------------  ---------------
   113     18.446375  3 H  px               149     18.446375  4 H  py         
    57     11.374947  1 B  gxxxy             62     11.374947  1 B  gxyyy      
    73     -9.132369  2 H  s                 64      7.361194  1 B  gxyzz      
   134     -7.131382  3 H  fxyy             167     -7.131382  4 H  fxxy       
    19      6.936446  1 B  dxy              136     -6.341467  3 H  fxzz       

 Vector  164  Occ=0.000000D+00  E= 1.555219D+01  Symmetry=e'
              MO Center= -1.0D-01, -1.0D-01,  5.7D-18, r^2= 6.0D-01
   Bfn.  Coefficient  Atom+Function         Bfn.  Coefficient  Atom+Function  
  ----- ------------  ---------------      ----- ------------  ---------------
    78     18.484268  2 H  px                79    -18.484268  2 H  py         
   113     11.299219  3 H  px               149    -11.299219  4 H  py         
   114      8.330698  3 H  py               148     -8.330698  4 H  px         
    56     -7.604700  1 B  gxxxx             66      7.604700  1 B  gyyyy      
   101     -6.135923  2 H  fxzz             104      6.135923  2 H  fyzz       

 Vector  165  Occ=0.000000D+00  E= 1.611500D+01  Symmetry=a1'
              MO Center=  1.4D-12, -2.2D-12,  2.4D-16, r^2= 8.2D-01
   Bfn.  Coefficient  Atom+Function         Bfn.  Coefficient  Atom+Function  
  ----- ------------  ---------------      ----- ------------  ---------------
     4     24.278020  1 B  s                114    -22.954726  3 H  py         
   148    -22.954726  4 H  px                61     20.503690  1 B  gxxzz      
    68     20.503690  1 B  gyyzz             78     16.804026  2 H  px         
    79     16.804026  2 H  py                 3    -15.775372  1 B  s          
    59     15.450715  1 B  gxxyy             29    -15.312369  1 B  dzz        

 Vector  166  Occ=0.000000D+00  E= 1.760577D+01  Symmetry=e'
              MO Center= -1.8D-01, -1.8D-01, -2.8D-18, r^2= 1.1D+00
   Bfn.  Coefficient  Atom+Function         Bfn.  Coefficient  Atom+Function  
  ----- ------------  ---------------      ----- ------------  ---------------
   114     69.957433  3 H  py               148    -69.957433  4 H  px         
   108    -36.649235  3 H  s                143     36.649235  4 H  s          
   107     24.696175  3 H  s                142    -24.696175  4 H  s          
   132    -24.351612  3 H  fxxy             139    -24.425617  3 H  fyzz       
   169     24.351612  4 H  fxyy             171     24.425617  4 H  fxzz       

 Vector  167  Occ=0.000000D+00  E= 1.763589D+01  Symmetry=e'
              MO Center=  1.9D-01,  1.9D-01, -2.1D-17, r^2= 1.1D+00
   Bfn.  Coefficient  Atom+Function         Bfn.  Coefficient  Atom+Function  
  ----- ------------  ---------------      ----- ------------  ---------------
    78     59.021294  2 H  px                79     59.021294  2 H  py         
    73     42.118681  2 H  s                114     38.072965  3 H  py         
   148     38.072965  4 H  px                72    -31.649378  2 H  s          
   108    -21.059341  3 H  s                143    -21.059341  4 H  s          
   101    -20.522925  2 H  fxzz             104    -20.522925  2 H  fyzz       

 Vector  168  Occ=0.000000D+00  E= 3.485854D+01  Symmetry=e'
              MO Center=  2.1D-01,  2.1D-01, -3.4D-18, r^2= 7.4D-01
   Bfn.  Coefficient  Atom+Function         Bfn.  Coefficient  Atom+Function  
  ----- ------------  ---------------      ----- ------------  ---------------
    25     15.278473  1 B  dxy               73     13.213199  2 H  s          
     9     12.115855  1 B  px                10     12.115855  1 B  py         
    72      7.746299  2 H  s                 64     -7.638348  1 B  gxyzz      
    71     -7.454107  2 H  s                 57     -7.230448  1 B  gxxxy      
    62     -7.230448  1 B  gxyyy            108     -6.606599  3 H  s          

 Vector  169  Occ=0.000000D+00  E= 3.488772D+01  Symmetry=e'
              MO Center= -2.1D-01, -2.1D-01,  7.0D-19, r^2= 7.4D-01
   Bfn.  Coefficient  Atom+Function         Bfn.  Coefficient  Atom+Function  
  ----- ------------  ---------------      ----- ------------  ---------------
     9     12.947006  1 B  px                10    -12.947006  1 B  py         
   108     10.072276  3 H  s                143    -10.072276  4 H  s          
    24     -7.996335  1 B  dxx               27      7.996335  1 B  dyy        
   107      6.529416  3 H  s                142     -6.529416  4 H  s          
   106     -6.459216  3 H  s                141      6.459216  4 H  s          

 Vector  170  Occ=0.000000D+00  E= 3.546186D+01  Symmetry=a1'
              MO Center= -1.5D-12,  1.5D-12, -6.3D-16, r^2= 7.6D-01
   Bfn.  Coefficient  Atom+Function         Bfn.  Coefficient  Atom+Function  
  ----- ------------  ---------------      ----- ------------  ---------------
    24      8.953103  1 B  dxx               27      8.953103  1 B  dyy        
    72      5.524576  2 H  s                107      5.524576  3 H  s          
   142      5.524576  4 H  s                 71     -5.284049  2 H  s          
   106     -5.284049  3 H  s                141     -5.284049  4 H  s          
     3      5.159442  1 B  s                 95     -5.043827  2 H  dzz        

 Vector  171  Occ=0.000000D+00  E= 4.281167D+01  Symmetry=a1'
              MO Center=  8.0D-13,  2.7D-13,  8.4D-19, r^2= 2.2D-01
   Bfn.  Coefficient  Atom+Function         Bfn.  Coefficient  Atom+Function  
  ----- ------------  ---------------      ----- ------------  ---------------
     2     47.932564  1 B  s                  1     36.240418  1 B  s          
    59    -14.537126  1 B  gxxyy              4    -14.198283  1 B  s          
   114     13.218986  3 H  py               148     13.218986  4 H  px         
    23    -12.961196  1 B  dzz               18    -12.886202  1 B  dxx        
    21    -12.886202  1 B  dyy               61    -12.746173  1 B  gxxzz      


------------------------------------------------------------
EAF file 0: "./bh3_cc-pvqz.aoints.0" size=220725248 bytes
------------------------------------------------------------
               write      read    awrite     aread      wait
               -----      ----    ------     -----      ----
     calls:      421         4         0      1680      1680
   data(b): 2.21e+08  2.10e+06  0.00e+00  8.81e+08
   time(s): 0.00e+00  0.00e+00  0.00e+00  0.00e+00  0.00e+00
rate(mb/s): 0.00e+00  0.00e+00
------------------------------------------------------------


 center of mass
 --------------
 x =  -0.00000000 y =  -0.00000000 z =   0.00000000

 moments of inertia (a.u.)
 ------------------
           2.108913130136           0.000000000000           0.000000000000
           0.000000000000           2.108913130136           0.000000000000
           0.000000000000           0.000000000000           4.217826260273

     Multipole analysis of the density
     ---------------------------------

     L   x y z        total         alpha         beta         nuclear
     -   - - -        -----         -----         ----         -------
     0   0 0 0     -0.000000     -4.000000     -4.000000      8.000000

     1   1 0 0      0.000000      0.000000      0.000000     -0.000000
     1   0 1 0      0.000000      0.000000      0.000000     -0.000000
     1   0 0 1      0.000000      0.000000      0.000000      0.000000

     2   2 0 0     -5.383286     -3.737912     -3.737912      2.092539
     2   1 1 0      0.000000      0.000000      0.000000     -0.000000
     2   1 0 1      0.000000      0.000000      0.000000      0.000000
     2   0 2 0     -5.383286     -3.737912     -3.737912      2.092539
     2   0 1 1     -0.000000     -0.000000     -0.000000      0.000000
     2   0 0 2     -3.818966     -1.909483     -1.909483      0.000000


 Parallel integral file used     421 records with       0 large values


 Task  times  cpu:        7.1s     wall:        7.1s
 Summary of allocated global arrays
-----------------------------------
  No active global arrays



                         GA Statistics for process    0
                         ------------------------------

       create   destroy   get      put      acc     scatter   gather  read&inc
calls:  180      180     3.35e+04 1.34e+04 5087        0        0      514     
number of processes/call 0.00e+00 0.00e+00 0.00e+00 0.00e+00 0.00e+00
bytes total:             1.59e+08 4.87e+07 1.04e+08 0.00e+00 0.00e+00 4.11e+03
bytes remote:            0.00e+00 0.00e+00 0.00e+00 0.00e+00 0.00e+00 0.00e+00
Max memory consumed for GA by this process: 9555000 bytes
MA_summarize_allocated_blocks: starting scan ...
MA_summarize_allocated_blocks: scan completed: 0 heap blocks, 0 stack blocks
MA usage statistics:

	allocation statistics:
					      heap	     stack
					      ----	     -----
	current number of blocks	         0	         0
	maximum number of blocks	        21	        57
	current total bytes		         0	         0
	maximum total bytes		   1609128	  44238440
	maximum total K-bytes		      1610	     44239
	maximum total M-bytes		         2	        45


                                NWChem Input Module
                                -------------------





                                     CITATION
                                     --------
                Please cite the following reference when publishing
                           results obtained with NWChem:

                 M. Valiev, E.J. Bylaska, N. Govind, K. Kowalski,
              T.P. Straatsma, H.J.J. van Dam, D. Wang, J. Nieplocha,
                        E. Apra, T.L. Windus, W.A. de Jong
                 "NWChem: a comprehensive and scalable open-source
                  solution for large scale molecular simulations"
                      Comput. Phys. Commun. 181, 1477 (2010)
                           doi:10.1016/j.cpc.2010.04.018

                                      AUTHORS
                                      -------
     E. Apra, E. J. Bylaska, N. Govind, K. Kowalski, M. Valiev, W. A. de Jong,
      T. P. Straatsma, H. J. J. van Dam, D. Wang, T. L. Windus, N. P. Bauman,
       A. Panyala, J. Hammond, J. Autschbach, K. Bhaskaran-Nair, J. Brabec,
    K. Lopata, S. A. Fischer, S. Krishnamoorthy, M. Jacquelin, W. Ma, M. Klemm,
       O. Villa, Y. Chen, V. Anisimov, F. Aquino, S. Hirata, M. T. Hackler,
           Eric Hermes, L. Jensen, J. E. Moore, J. C. Becca, V. Konjkov,
            D. Mejia-Rodriguez, T. Risthaus, M. Malagoli, A. Marenich,
   A. Otero-de-la-Roza, J. Mullin, P. Nichols, R. Peverati, J. Pittner, Y. Zhao,
        P.-D. Fan, A. Fonari, M. J. Williamson, R. J. Harrison, J. R. Rehr,
      M. Dupuis, D. Silverstein, D. M. A. Smith, J. Nieplocha, V. Tipparaju,
      M. Krishnan, B. E. Van Kuiken, A. Vazquez-Mayagoitia, M. Swart, Q. Wu,
   T. Van Voorhis, A. A. Auer, M. Nooijen, L. D. Crosby, E. Brown, G. Cisneros,
     G. I. Fann, H. Fruchtl, J. Garza, K. Hirao, R. A. Kendall, J. A. Nichols,
       K. Tsemekhman, K. Wolinski, J. Anchell, D. E. Bernholdt, P. Borowski,
       T. Clark, D. Clerc, H. Dachsel, M. J. O. Deegan, K. Dyall, D. Elwood,
      E. Glendening, M. Gutowski, A. C. Hess, J. Jaffe, B. G. Johnson, J. Ju,
        R. Kobayashi, R. Kutteh, Z. Lin, R. Littlefield, X. Long, B. Meng,
      T. Nakajima, S. Niu, L. Pollack, M. Rosing, K. Glaesemann, G. Sandrone,
      M. Stave, H. Taylor, G. Thomas, J. H. van Lenthe, A. T. Wong, Z. Zhang.

 Total times  cpu:        7.1s     wall:        7.1s
