 argument  1 = bh3_cc-pvdz.inp
                                         
                                         


             Northwest Computational Chemistry Package (NWChem) 7.0.0
             --------------------------------------------------------


                    Environmental Molecular Sciences Laboratory
                       Pacific Northwest National Laboratory
                                Richland, WA 99352

                              Copyright (c) 1994-2019
                       Pacific Northwest National Laboratory
                            Battelle Memorial Institute

             NWChem is an open-source computational chemistry package
                        distributed under the terms of the
                      Educational Community License (ECL) 2.0
             A copy of the license is included with this distribution
                              in the LICENSE.TXT file

                                  ACKNOWLEDGMENT
                                  --------------

            This software and its documentation were developed at the
            EMSL at Pacific Northwest National Laboratory, a multiprogram
            national laboratory, operated for the U.S. Department of Energy
            by Battelle under Contract Number DE-AC05-76RL01830. Support
            for this work was provided by the Department of Energy Office
            of Biological and Environmental Research, Office of Basic
            Energy Sciences, and the Office of Advanced Scientific Computing.


           Job information
           ---------------

    hostname        = Amanda-Dewyers-MacBook-Air.local
    program         = nwchem
    date            = Fri Sep 11 16:51:58 2020

    compiled        = Fri_Jul_03_06:05:09_2020
    source          = /private/tmp/nwchem-20200703-71421-tc8c0i/nwchem-7.0.0
    nwchem branch   = 7.0.0
    nwchem revision = 2c9a1c7c
    ga revision     = 5.7.1
    use scalapack   = T
    input           = bh3_cc-pvdz.inp
    prefix          = bh3_cc-pvdz.
    data base       = ./bh3_cc-pvdz.db
    status          = startup
    nproc           =        1
    time left       =     -1s



           Memory information
           ------------------

    heap     =   13107196 doubles =    100.0 Mbytes
    stack    =   13107201 doubles =    100.0 Mbytes
    global   =   26214400 doubles =    200.0 Mbytes (distinct from heap & stack)
    total    =   52428797 doubles =    400.0 Mbytes
    verify   = yes
    hardfail = no 


           Directory information
           ---------------------

  0 permanent = .
  0 scratch   = .




                                NWChem Input Module
                                -------------------


                                     test case
                                     ---------
 D3H symmetry detected

          ------
          auto-z
          ------
  Looking for out-of-plane bends
  no constraints, skipping    0.0000000000000000     
  no constraints, skipping    0.0000000000000000     


                             Geometry "geometry" -> ""
                             -------------------------

 Output coordinates in a.u. (scale by  1.000000000 to convert to a.u.)

  No.       Tag          Charge          X              Y              Z
 ---- ---------------- ---------- -------------- -------------- --------------
    1 B                    5.0000     0.00000000     0.00000000     0.00000000
    2 H                    1.0000     0.83517244     0.83517244     0.00000000
    3 H                    1.0000     0.30569433    -1.14086677     0.00000000
    4 H                    1.0000    -1.14086677     0.30569433     0.00000000

      Atomic Mass 
      ----------- 

      B                 11.009310
      H                  1.007825


 Effective nuclear repulsion energy (a.u.)      14.1663517928

            Nuclear Dipole moment (a.u.) 
            ----------------------------
        X                 Y               Z
 ---------------- ---------------- ----------------
    -0.0000000000    -0.0000000000     0.0000000000

      Symmetry information
      --------------------

 Group name             D3h       
 Group number             27
 Group order              12
 No. of unique centers     2

      Symmetry unique atoms

     1    2



                                Z-matrix (autoz)
                                -------- 

 Units are Angstrom for bonds and degrees for angles

      Type          Name      I     J     K     L     M      Value
      ----------- --------  ----- ----- ----- ----- ----- ----------
    1 Stretch                  1     2                       0.62502
    2 Stretch                  1     3                       0.62502
    3 Stretch                  1     4                       0.62502
    4 Bend                     2     1     3               120.00000
    5 Bend                     2     1     4               120.00000
    6 Bend                     3     1     4               120.00000
    7 Torsion                  2     1     3     4         180.00000
    8 Torsion                  2     1     4     3         180.00000
    9 Torsion                  3     1     2     4         180.00000
   10 Torsion                  2     4     1     3         180.00000
   11 Torsion                  3     2     1     4         180.00000
   12 Torsion                  2     3     1     4         180.00000


            XYZ format geometry
            -------------------
     4
 geometry
 B                     0.00000000     0.00000000     0.00000000
 H                     0.44195425     0.44195425     0.00000000
 H                     0.16176648    -0.60372074     0.00000000
 H                    -0.60372074     0.16176648     0.00000000

 ==============================================================================
                                internuclear distances
 ------------------------------------------------------------------------------
       center one      |      center two      | atomic units |       a.u.
 ------------------------------------------------------------------------------
    2 H                |   1 B                |     1.18111  |     1.18111
    3 H                |   1 B                |     1.18111  |     1.18111
    4 H                |   1 B                |     1.18111  |     1.18111
 ------------------------------------------------------------------------------
                         number of included internuclear distances:          3
 ==============================================================================



 ==============================================================================
                                 internuclear angles
 ------------------------------------------------------------------------------
        center 1       |       center 2       |       center 3       |  degrees
 ------------------------------------------------------------------------------
    2 H                |   1 B                |   3 H                |   120.00
    2 H                |   1 B                |   4 H                |   120.00
    3 H                |   1 B                |   4 H                |   120.00
 ------------------------------------------------------------------------------
                            number of included internuclear angles:          3
 ==============================================================================



  library name resolved from: .nwchemrc
  library file name is: </usr/local/Cellar/nwchem/7.0.0_2/share/nwchem/libraries/>
  


 Summary of "ao basis" -> "" (cartesian)
 ------------------------------------------------------------------------------
       Tag                 Description            Shells   Functions and Types
 ---------------- ------------------------------  ------  ---------------------
 *                          cc-pvdz                   on all atoms 



                                 NWChem DFT Module
                                 -----------------


                                     test case


                      Basis "ao basis" -> "ao basis" (cartesian)
                      -----
  B (Boron)
  ---------
            Exponent  Coefficients 
       -------------- ---------------------------------------------------------
  1 S  4.57000000E+03  0.000696
  1 S  6.85900000E+02  0.005353
  1 S  1.56500000E+02  0.027134
  1 S  4.44700000E+01  0.101380
  1 S  1.44800000E+01  0.272055
  1 S  5.13100000E+00  0.448403
  1 S  1.89800000E+00  0.290123
  1 S  3.32900000E-01  0.014322

  2 S  4.57000000E+03 -0.000139
  2 S  6.85900000E+02 -0.001097
  2 S  1.56500000E+02 -0.005444
  2 S  4.44700000E+01 -0.021916
  2 S  1.44800000E+01 -0.059751
  2 S  5.13100000E+00 -0.138732
  2 S  1.89800000E+00 -0.131482
  2 S  3.32900000E-01  0.539526

  3 S  1.04300000E-01  1.000000

  4 P  6.00100000E+00  0.035481
  4 P  1.24100000E+00  0.198072
  4 P  3.36400000E-01  0.505230

  5 P  9.53800000E-02  1.000000

  6 D  3.43000000E-01  1.000000

  H (Hydrogen)
  ------------
            Exponent  Coefficients 
       -------------- ---------------------------------------------------------
  1 S  1.30100000E+01  0.019685
  1 S  1.96200000E+00  0.137977
  1 S  4.44600000E-01  0.478148

  2 S  1.22000000E-01  1.000000

  3 P  7.27000000E-01  1.000000



 Summary of "ao basis" -> "ao basis" (cartesian)
 ------------------------------------------------------------------------------
       Tag                 Description            Shells   Functions and Types
 ---------------- ------------------------------  ------  ---------------------
 B                          cc-pvdz                  6       15   3s2p1d
 H                          cc-pvdz                  3        5   2s1p




 Summary of "ao basis" -> "ao basis" (cartesian)
 ------------------------------------------------------------------------------
       Tag                 Description            Shells   Functions and Types
 ---------------- ------------------------------  ------  ---------------------
 B                          cc-pvdz                  6       15   3s2p1d
 H                          cc-pvdz                  3        5   2s1p


      Symmetry analysis of basis
      --------------------------

        a1'         8
        a1"         0
        a2'         1
        a2"         3
        e'         14
        e"          4

  Caching 1-el integrals 
  Rotation of axis 

            General Information
            -------------------
          SCF calculation type: DFT
          Wavefunction type:  closed shell.
          No. of atoms     :     4
          No. of electrons :     8
           Alpha electrons :     4
            Beta electrons :     4
          Charge           :     0
          Spin multiplicity:     1
          Use of symmetry is: on ; symmetry adaption is: on 
          Maximum number of iterations:  30
          AO basis - number of functions:    30
                     number of shells:    15
          Convergence on energy requested:  1.00D-06
          Convergence on density requested:  1.00D-05
          Convergence on gradient requested:  5.00D-04

              XC Information
              --------------
                         B3LYP Method XC Potential
                     Hartree-Fock (Exact) Exchange  0.200          
                        Slater Exchange Functional  0.800 local    
                    Becke 1988 Exchange Functional  0.720 non-local
              Lee-Yang-Parr Correlation Functional  0.810          
                  VWN I RPA Correlation Functional  0.190 local    

             Grid Information
             ----------------
          Grid used for XC integration:  medium    
          Radial quadrature: Mura-Knowles        
          Angular quadrature: Lebedev. 
          Tag              B.-S. Rad. Rad. Pts. Rad. Cut. Ang. Pts.
          ---              ---------- --------- --------- ---------
          B                   0.85       49           6.0       434
          H                   0.35       45           6.0       434
          Grid pruning is: on 
          Number of quadrature shells:    94
          Spatial weights used:  Erf1

          Convergence Information
          -----------------------
          Convergence aids based upon iterative change in 
          total energy or number of iterations. 
          Levelshifting, if invoked, occurs when the 
          HOMO/LUMO gap drops below (HL_TOL):  1.00D-02
          DIIS, if invoked, will attempt to extrapolate 
          using up to (NFOCK): 10 stored Fock matrices.

                    Damping( 0%)  Levelshifting(0.5)       DIIS
                  --------------- ------------------- ---------------
          dE  on:    start            ASAP                start   
          dE off:    2 iters         30 iters            30 iters 


      Screening Tolerance Information
      -------------------------------
          Density screening/tol_rho:  1.00D-10
          AO Gaussian exp screening on grid/accAOfunc:  14
          CD Gaussian exp screening on grid/accCDfunc:  20
          XC Gaussian exp screening on grid/accXCfunc:  20
          Schwarz screening/accCoul:  1.00D-08


      Superposition of Atomic Density Guess
      -------------------------------------

 Sum of atomic energies:         -26.03078371

      Non-variational initial energy
      ------------------------------

 Total energy =     -26.426307
 1-e energy   =     -56.834314
 2-e energy   =      16.241655
 HOMO         =      -0.659102
 LUMO         =      -0.218265


      Symmetry analysis of molecular orbitals - initial
      -------------------------------------------------

  Numbering of irreducible representations: 

     1 a1'         2 a1"         3 a2'         4 a2"         5 e'      
     6 e"      

  Orbital symmetries:

     1 a1'         2 a1'         3 e'          4 e'          5 a2"     
     6 a1'         7 e'          8 e'          9 a2"        10 a1'     
    11 e'         12 e'         13 e"         14 e"      

   Time after variat. SCF:      0.1
   Time prior to 1st pass:      0.1

 #quartets = 2.250D+03 #integrals = 2.018D+04 #direct =  0.0% #cached =100.0%


 Integral file          = ./bh3_cc-pvdz.aoints.0
 Record size in doubles =  65536        No. of integs per rec  =  43688
 Max. records in memory =      2        Max. records in file   = 183609
 No. of bits per label  =      8        No. of bits per value  =     64


 Grid_pts file          = ./bh3_cc-pvdz.gridpts.0
 Record size in doubles =  12289        No. of grid_pts per rec  =   3070
 Max. records in memory =     16        Max. recs in file   =    979175


           Memory utilization after 1st SCF pass: 
           Heap Space remaining (MW):       12.78            12777524
          Stack Space remaining (MW):       13.11            13106876

   convergence    iter        energy       DeltaE   RMS-Dens  Diis-err    time
 ---------------- ----- ----------------- --------- --------- ---------  ------
 d= 0,ls=0.0,diis     1    -25.2079451835 -3.94D+01  1.09D-02  6.97D-02     0.2
 d= 0,ls=0.0,diis     2    -25.2130428606 -5.10D-03  3.04D-03  3.00D-03     0.3
 d= 0,ls=0.0,diis     3    -25.2133740827 -3.31D-04  6.23D-04  2.32D-04     0.3
 d= 0,ls=0.0,diis     4    -25.2134061466 -3.21D-05  3.80D-05  3.63D-07     0.4
 d= 0,ls=0.0,diis     5    -25.2134062042 -5.76D-08  1.18D-06  5.28D-11     0.4


         Total DFT energy =      -25.213406204202
      One electron energy =      -58.820069971476
           Coulomb energy =       25.227537169645
    Exchange-Corr. energy =       -5.787225195182
 Nuclear repulsion energy =       14.166351792812

 Numeric. integr. density =        7.999994695044

     Total iterative time =      0.3s



                  Occupations of the irreducible representations
                  ----------------------------------------------

                     irrep           alpha         beta
                     --------     --------     --------
                     a1'               2.0          2.0
                     a1"               0.0          0.0
                     a2'               0.0          0.0
                     a2"               0.0          0.0
                     e'                2.0          2.0
                     e"                0.0          0.0


                       DFT Final Molecular Orbital Analysis
                       ------------------------------------

 Vector    1  Occ=2.000000D+00  E=-6.812073D+00  Symmetry=a1'
              MO Center=  2.9D-17, -1.2D-17, -3.0D-22, r^2= 4.2D-02
   Bfn.  Coefficient  Atom+Function         Bfn.  Coefficient  Atom+Function  
  ----- ------------  ---------------      ----- ------------  ---------------
     1      0.969468  1 B  s                  2     -0.028885  1 B  s          

 Vector    2  Occ=2.000000D+00  E=-5.982468D-01  Symmetry=a1'
              MO Center= -2.6D-15,  9.6D-17, -2.4D-16, r^2= 8.8D-01
   Bfn.  Coefficient  Atom+Function         Bfn.  Coefficient  Atom+Function  
  ----- ------------  ---------------      ----- ------------  ---------------
     3      0.491576  1 B  s                 16      0.299614  2 H  s          
    21      0.299614  3 H  s                 26      0.299614  4 H  s          
     2      0.242305  1 B  s                  1     -0.222864  1 B  s          
    17     -0.089304  2 H  s                 22     -0.089304  3 H  s          
    27     -0.089304  4 H  s                 10     -0.030103  1 B  dxx        

 Vector    3  Occ=2.000000D+00  E=-4.381721D-01  Symmetry=e'
              MO Center=  5.6D-02, -1.1D-01,  2.3D-35, r^2= 8.3D-01
   Bfn.  Coefficient  Atom+Function         Bfn.  Coefficient  Atom+Function  
  ----- ------------  ---------------      ----- ------------  ---------------
     5      0.518711  1 B  py                21     -0.493258  3 H  s          
    16      0.287865  2 H  s                 22      0.223776  3 H  s          
     8      0.217903  1 B  py                26      0.205393  4 H  s          
    17     -0.130595  2 H  s                 24     -0.098135  3 H  py         
    27     -0.093180  4 H  s                  4     -0.086674  1 B  px         

 Vector    4  Occ=2.000000D+00  E=-4.381721D-01  Symmetry=e'
              MO Center= -5.6D-02,  1.1D-01,  8.7D-33, r^2= 8.3D-01
   Bfn.  Coefficient  Atom+Function         Bfn.  Coefficient  Atom+Function  
  ----- ------------  ---------------      ----- ------------  ---------------
     4      0.518711  1 B  px                26     -0.450981  4 H  s          
    16      0.403366  2 H  s                  7      0.217903  1 B  px         
    27      0.204596  4 H  s                 17     -0.182995  2 H  s          
    28     -0.090761  4 H  px                 5      0.086674  1 B  py         
    18     -0.063606  2 H  px                19     -0.053524  2 H  py         

 Vector    5  Occ=0.000000D+00  E=-7.567404D-02  Symmetry=a2"
              MO Center= -1.5D-18, -3.6D-18,  2.4D-16, r^2= 1.8D+00
   Bfn.  Coefficient  Atom+Function         Bfn.  Coefficient  Atom+Function  
  ----- ------------  ---------------      ----- ------------  ---------------
     6      0.575118  1 B  pz                 9      0.517319  1 B  pz         

 Vector    6  Occ=0.000000D+00  E= 1.483110D-01  Symmetry=e'
              MO Center=  6.0D-01, -1.6D-01,  8.4D-17, r^2= 4.9D+00
   Bfn.  Coefficient  Atom+Function         Bfn.  Coefficient  Atom+Function  
  ----- ------------  ---------------      ----- ------------  ---------------
    27      3.548507  4 H  s                  7      2.835326  1 B  px         
    17     -1.772125  2 H  s                 22     -1.776383  3 H  s          
     8     -0.761829  1 B  py                 4     -0.251325  1 B  px         
    26      0.223385  4 H  s                 16     -0.111558  2 H  s          
    21     -0.111826  3 H  s                 11      0.107143  1 B  dxy        

 Vector    7  Occ=0.000000D+00  E= 1.483110D-01  Symmetry=e'
              MO Center= -6.0D-01,  1.6D-01,  5.1D-17, r^2= 4.9D+00
   Bfn.  Coefficient  Atom+Function         Bfn.  Coefficient  Atom+Function  
  ----- ------------  ---------------      ----- ------------  ---------------
    17     -3.074327  2 H  s                 22      3.071868  3 H  s          
     8      2.835326  1 B  py                 7      0.761829  1 B  px         
     5     -0.251325  1 B  py                16     -0.193534  2 H  s          
    21      0.193379  3 H  s                 11      0.185874  1 B  dxy        
    29      0.075524  4 H  py                 4     -0.067529  1 B  px         

 Vector    8  Occ=0.000000D+00  E= 1.539469D-01  Symmetry=a1'
              MO Center= -2.6D-13, -5.1D-13, -6.1D-19, r^2= 4.2D+00
   Bfn.  Coefficient  Atom+Function         Bfn.  Coefficient  Atom+Function  
  ----- ------------  ---------------      ----- ------------  ---------------
     3      9.018353  1 B  s                 17     -2.666457  2 H  s          
    22     -2.666457  3 H  s                 27     -2.666457  4 H  s          
    15     -0.339330  1 B  dzz               10     -0.300886  1 B  dxx        
    13     -0.300886  1 B  dyy               16     -0.262476  2 H  s          
    21     -0.262476  3 H  s                 26     -0.262476  4 H  s          

 Vector    9  Occ=0.000000D+00  E= 3.055735D-01  Symmetry=a2"
              MO Center=  4.3D-17, -1.5D-17, -3.7D-17, r^2= 3.3D+00
   Bfn.  Coefficient  Atom+Function         Bfn.  Coefficient  Atom+Function  
  ----- ------------  ---------------      ----- ------------  ---------------
     9      1.069823  1 B  pz                 6     -0.963526  1 B  pz         
    20     -0.025408  2 H  pz                25     -0.025408  3 H  pz         
    30     -0.025408  4 H  pz         

 Vector   10  Occ=0.000000D+00  E= 3.126405D-01  Symmetry=a1'
              MO Center= -5.6D-14,  3.4D-13,  3.8D-17, r^2= 4.1D+00
   Bfn.  Coefficient  Atom+Function         Bfn.  Coefficient  Atom+Function  
  ----- ------------  ---------------      ----- ------------  ---------------
     3     15.894011  1 B  s                 17     -6.397348  2 H  s          
    22     -6.397348  3 H  s                 27     -6.397348  4 H  s          
    10      0.471074  1 B  dxx               13      0.471074  1 B  dyy        
    15      0.444756  1 B  dzz                2      0.336836  1 B  s          
    16      0.202698  2 H  s                 21      0.202698  3 H  s          

 Vector   11  Occ=0.000000D+00  E= 3.382976D-01  Symmetry=e'
              MO Center=  1.8D-01, -4.8D-01, -1.2D-28, r^2= 3.3D+00
   Bfn.  Coefficient  Atom+Function         Bfn.  Coefficient  Atom+Function  
  ----- ------------  ---------------      ----- ------------  ---------------
    22      6.413309  3 H  s                 17     -3.496184  2 H  s          
    27     -2.917125  4 H  s                  8      2.756115  1 B  py         
     5      0.672490  1 B  py                 7     -0.586631  1 B  px         
    11     -0.167343  1 B  dxy                4     -0.143137  1 B  px         
    10     -0.128921  1 B  dxx               13      0.128921  1 B  dyy        

 Vector   12  Occ=0.000000D+00  E= 3.382976D-01  Symmetry=e'
              MO Center= -1.8D-01,  4.8D-01, -4.4D-29, r^2= 3.3D+00
   Bfn.  Coefficient  Atom+Function         Bfn.  Coefficient  Atom+Function  
  ----- ------------  ---------------      ----- ------------  ---------------
    27     -5.721248  4 H  s                 17      5.386928  2 H  s          
     7     -2.756115  1 B  px                 4     -0.672490  1 B  px         
     8     -0.586631  1 B  py                22      0.334320  3 H  s          
    11      0.257842  1 B  dxy                5     -0.143137  1 B  py         
    26      0.095073  4 H  s                 16     -0.089518  2 H  s          

 Vector   13  Occ=0.000000D+00  E= 6.872819D-01  Symmetry=e"
              MO Center=  3.6D-02,  2.3D-02, -6.6D-17, r^2= 1.5D+00
   Bfn.  Coefficient  Atom+Function         Bfn.  Coefficient  Atom+Function  
  ----- ------------  ---------------      ----- ------------  ---------------
    12      1.486803  1 B  dxz               14     -1.189087  1 B  dyz        
    30      0.109279  4 H  pz                25     -0.096087  3 H  pz         

 Vector   14  Occ=0.000000D+00  E= 6.872819D-01  Symmetry=e"
              MO Center= -3.6D-02, -2.3D-02, -3.5D-17, r^2= 1.5D+00
   Bfn.  Coefficient  Atom+Function         Bfn.  Coefficient  Atom+Function  
  ----- ------------  ---------------      ----- ------------  ---------------
    14      1.486803  1 B  dyz               12      1.189087  1 B  dxz        
    20     -0.118568  2 H  pz                25      0.070709  3 H  pz         
    30      0.047860  4 H  pz         

 Vector   15  Occ=0.000000D+00  E= 7.504615D-01  Symmetry=e'
              MO Center=  3.2D-01,  1.8D-01, -7.6D-30, r^2= 2.3D+00
   Bfn.  Coefficient  Atom+Function         Bfn.  Coefficient  Atom+Function  
  ----- ------------  ---------------      ----- ------------  ---------------
    27      4.914822  4 H  s                 22     -4.179915  3 H  s          
     7      2.265035  1 B  px                 8     -1.708851  1 B  py         
    10     -1.055163  1 B  dxx               13      1.055163  1 B  dyy        
    17     -0.734907  2 H  s                 11      0.295361  1 B  dxy        
    26     -0.293965  4 H  s                 21      0.250009  3 H  s          

 Vector   16  Occ=0.000000D+00  E= 7.504615D-01  Symmetry=e'
              MO Center= -3.2D-01, -1.8D-01,  9.1D-31, r^2= 2.3D+00
   Bfn.  Coefficient  Atom+Function         Bfn.  Coefficient  Atom+Function  
  ----- ------------  ---------------      ----- ------------  ---------------
    17      5.250849  2 H  s                 22     -3.261873  3 H  s          
     8     -2.265035  1 B  py                11     -2.110326  1 B  dxy        
    27     -1.988977  4 H  s                  7     -1.708851  1 B  px         
    16     -0.314064  2 H  s                 21      0.195099  3 H  s          
     5      0.179439  1 B  py                10     -0.147680  1 B  dxx        

 Vector   17  Occ=0.000000D+00  E= 8.514452D-01  Symmetry=a1'
              MO Center= -3.8D-15, -7.6D-15, -2.1D-19, r^2= 2.2D+00
   Bfn.  Coefficient  Atom+Function         Bfn.  Coefficient  Atom+Function  
  ----- ------------  ---------------      ----- ------------  ---------------
     3     12.034008  1 B  s                 17     -4.365744  2 H  s          
    22     -4.365744  3 H  s                 27     -4.365744  4 H  s          
    15     -1.293879  1 B  dzz               16      0.224416  2 H  s          
    21      0.224416  3 H  s                 26      0.224416  4 H  s          
    10      0.205857  1 B  dxx               13      0.205857  1 B  dyy        

 Vector   18  Occ=0.000000D+00  E= 1.233392D+00  Symmetry=a1'
              MO Center= -9.0D-16,  1.7D-16, -7.5D-20, r^2= 2.1D+00
   Bfn.  Coefficient  Atom+Function         Bfn.  Coefficient  Atom+Function  
  ----- ------------  ---------------      ----- ------------  ---------------
     3      3.969242  1 B  s                 17     -2.234100  2 H  s          
    22     -2.234100  3 H  s                 27     -2.234100  4 H  s          
    10      2.106902  1 B  dxx               13      2.106902  1 B  dyy        
     2     -1.259043  1 B  s                 15      0.972237  1 B  dzz        
     1     -0.333816  1 B  s                 24      0.330969  3 H  py         

 Vector   19  Occ=0.000000D+00  E= 1.712071D+00  Symmetry=e'
              MO Center= -1.6D-01, -1.1D-01, -8.7D-32, r^2= 1.5D+00
   Bfn.  Coefficient  Atom+Function         Bfn.  Coefficient  Atom+Function  
  ----- ------------  ---------------      ----- ------------  ---------------
    28      1.229920  4 H  px                10      1.222003  1 B  dxx        
    13     -1.222003  1 B  dyy               24     -1.121120  3 H  py         
    26     -0.588547  4 H  s                 21      0.519820  3 H  s          
    19      0.507324  2 H  py                27      0.482104  4 H  s          
    22     -0.425806  3 H  s                 18     -0.307420  2 H  px         

 Vector   20  Occ=0.000000D+00  E= 1.712071D+00  Symmetry=e'
              MO Center=  1.6D-01,  1.1D-01,  1.7D-34, r^2= 1.5D+00
   Bfn.  Coefficient  Atom+Function         Bfn.  Coefficient  Atom+Function  
  ----- ------------  ---------------      ----- ------------  ---------------
    11      2.444006  1 B  dxy               18     -0.974398  2 H  px         
    19     -0.886894  2 H  py                23      0.654046  3 H  px         
    29      0.650446  4 H  py                16     -0.639916  2 H  s          
    24     -0.632763  3 H  py                17      0.524182  2 H  s          
    21      0.379478  3 H  s                 28     -0.380260  4 H  px         

 Vector   21  Occ=0.000000D+00  E= 1.842549D+00  Symmetry=a1'
              MO Center=  3.0D-16, -7.5D-17,  1.9D-20, r^2= 1.1D+00
   Bfn.  Coefficient  Atom+Function         Bfn.  Coefficient  Atom+Function  
  ----- ------------  ---------------      ----- ------------  ---------------
     2      1.108660  1 B  s                 16     -1.030118  2 H  s          
    21     -1.030118  3 H  s                 26     -1.030118  4 H  s          
    15     -0.665430  1 B  dzz               10      0.659360  1 B  dxx        
    13      0.659360  1 B  dyy               24      0.563062  3 H  py         
    28      0.563062  4 H  px                18     -0.412190  2 H  px         

 Vector   22  Occ=0.000000D+00  E= 1.903117D+00  Symmetry=a2'
              MO Center=  1.4D-16,  2.6D-17,  1.7D-33, r^2= 1.1D+00
   Bfn.  Coefficient  Atom+Function         Bfn.  Coefficient  Atom+Function  
  ----- ------------  ---------------      ----- ------------  ---------------
    23      0.832012  3 H  px                29     -0.832012  4 H  py         
    18     -0.609075  2 H  px                19      0.609075  2 H  py         
    24      0.222937  3 H  py                28     -0.222937  4 H  px         

 Vector   23  Occ=0.000000D+00  E= 2.005518D+00  Symmetry=e"
              MO Center=  1.4D-01,  8.9D-02, -1.0D-16, r^2= 1.2D+00
   Bfn.  Coefficient  Atom+Function         Bfn.  Coefficient  Atom+Function  
  ----- ------------  ---------------      ----- ------------  ---------------
    14      1.641651  1 B  dyz               20     -1.498306  2 H  pz         
    12      1.312923  1 B  dxz               25      0.893521  3 H  pz         
    30      0.604784  4 H  pz         

 Vector   24  Occ=0.000000D+00  E= 2.005518D+00  Symmetry=e"
              MO Center= -1.4D-01, -8.9D-02,  6.9D-17, r^2= 1.2D+00
   Bfn.  Coefficient  Atom+Function         Bfn.  Coefficient  Atom+Function  
  ----- ------------  ---------------      ----- ------------  ---------------
    12      1.641651  1 B  dxz               30      1.380922  4 H  pz         
    14     -1.312923  1 B  dyz               25     -1.214220  3 H  pz         
    20     -0.166702  2 H  pz         

 Vector   25  Occ=0.000000D+00  E= 2.314106D+00  Symmetry=e'
              MO Center= -2.6D-01, -2.8D-02, -4.1D-31, r^2= 1.4D+00
   Bfn.  Coefficient  Atom+Function         Bfn.  Coefficient  Atom+Function  
  ----- ------------  ---------------      ----- ------------  ---------------
    11      2.854313  1 B  dxy               17     -2.805714  2 H  s          
    22      2.259952  3 H  s                 29      1.600866  4 H  py         
     8      1.407124  1 B  py                23      0.980106  3 H  px         
    16     -0.840419  2 H  s                 19      0.721250  2 H  py         
    21      0.676943  3 H  s                  7      0.673281  1 B  px         

 Vector   26  Occ=0.000000D+00  E= 2.314106D+00  Symmetry=e'
              MO Center=  2.6D-01,  2.8D-02, -1.6D-32, r^2= 1.4D+00
   Bfn.  Coefficient  Atom+Function         Bfn.  Coefficient  Atom+Function  
  ----- ------------  ---------------      ----- ------------  ---------------
    27      2.924663  4 H  s                 22     -1.934975  3 H  s          
    10     -1.427157  1 B  dxx               13      1.427157  1 B  dyy        
     7      1.407124  1 B  px                23      1.335117  3 H  px         
    18      1.252748  2 H  px                19     -1.027662  2 H  py         
    11      1.006832  1 B  dxy               17     -0.989688  2 H  s          

 Vector   27  Occ=0.000000D+00  E= 2.337437D+00  Symmetry=a2"
              MO Center=  2.2D-16,  4.5D-16,  1.6D-19, r^2= 1.1D+00
   Bfn.  Coefficient  Atom+Function         Bfn.  Coefficient  Atom+Function  
  ----- ------------  ---------------      ----- ------------  ---------------
     6      2.189067  1 B  pz                20     -1.096771  2 H  pz         
    25     -1.096771  3 H  pz                30     -1.096771  4 H  pz         
     9     -0.221050  1 B  pz         

 Vector   28  Occ=0.000000D+00  E= 4.130804D+00  Symmetry=e'
              MO Center= -2.0D-01, -1.2D-01, -7.4D-30, r^2= 9.0D-01
   Bfn.  Coefficient  Atom+Function         Bfn.  Coefficient  Atom+Function  
  ----- ------------  ---------------      ----- ------------  ---------------
    26      3.839585  4 H  s                  4      3.609196  1 B  px         
    21     -3.310438  3 H  s                  5     -2.789051  1 B  py         
    27      1.655699  4 H  s                 22     -1.427521  3 H  s          
    28      1.164962  4 H  px                24     -1.053993  3 H  py         
    19      0.601902  2 H  py                16     -0.529147  2 H  s          

 Vector   29  Occ=0.000000D+00  E= 4.130804D+00  Symmetry=e'
              MO Center=  2.0D-01,  1.2D-01,  3.2D-30, r^2= 9.0D-01
   Bfn.  Coefficient  Atom+Function         Bfn.  Coefficient  Atom+Function  
  ----- ------------  ---------------      ----- ------------  ---------------
    16      4.128068  2 H  s                  5     -3.609196  1 B  py         
     4     -2.789051  1 B  px                21     -2.522289  3 H  s          
    17      1.780098  2 H  s                 26     -1.605779  4 H  s          
    22     -1.087657  3 H  s                 18     -0.924809  2 H  px         
    11     -0.856552  1 B  dxy               19     -0.798823  2 H  py         

 Vector   30  Occ=0.000000D+00  E= 6.067384D+00  Symmetry=a1'
              MO Center=  1.5D-14,  1.7D-14, -1.3D-19, r^2= 1.0D+00
   Bfn.  Coefficient  Atom+Function         Bfn.  Coefficient  Atom+Function  
  ----- ------------  ---------------      ----- ------------  ---------------
     2      8.928949  1 B  s                  1      5.385000  1 B  s          
     3      2.830583  1 B  s                 16     -2.720967  2 H  s          
    21     -2.720967  3 H  s                 26     -2.720967  4 H  s          
    15     -2.263768  1 B  dzz               10     -1.400630  1 B  dxx        
    13     -1.400630  1 B  dyy               24     -1.021956  3 H  py         


 center of mass
 --------------
 x =  -0.00000000 y =  -0.00000000 z =   0.00000000

 moments of inertia (a.u.)
 ------------------
           2.108913130136           0.000000000000           0.000000000000
           0.000000000000           2.108913130136           0.000000000000
           0.000000000000           0.000000000000           4.217826260273

     Multipole analysis of the density
     ---------------------------------

     L   x y z        total         alpha         beta         nuclear
     -   - - -        -----         -----         ----         -------
     0   0 0 0     -0.000000     -4.000000     -4.000000      8.000000

     1   1 0 0      0.000000      0.000000      0.000000     -0.000000
     1   0 1 0      0.000000      0.000000      0.000000     -0.000000
     1   0 0 1     -0.000000     -0.000000     -0.000000      0.000000

     2   2 0 0     -5.212021     -3.652280     -3.652280      2.092539
     2   1 1 0     -0.000000      0.000000      0.000000     -0.000000
     2   1 0 1     -0.000000     -0.000000     -0.000000      0.000000
     2   0 2 0     -5.212021     -3.652280     -3.652280      2.092539
     2   0 1 1      0.000000      0.000000      0.000000      0.000000
     2   0 0 2     -3.990449     -1.995225     -1.995225      0.000000


 Parallel integral file used       1 records with       0 large values


 Task  times  cpu:        0.4s     wall:        0.4s
 Summary of allocated global arrays
-----------------------------------
  No active global arrays



                         GA Statistics for process    0
                         ------------------------------

       create   destroy   get      put      acc     scatter   gather  read&inc
calls:  169      169     7453     1857     5128        0        0      514     
number of processes/call 0.00e+00 0.00e+00 0.00e+00 0.00e+00 0.00e+00
bytes total:             4.37e+06 1.30e+06 3.09e+06 0.00e+00 0.00e+00 4.11e+03
bytes remote:            0.00e+00 0.00e+00 0.00e+00 0.00e+00 0.00e+00 0.00e+00
Max memory consumed for GA by this process: 280800 bytes
MA_summarize_allocated_blocks: starting scan ...
MA_summarize_allocated_blocks: scan completed: 0 heap blocks, 0 stack blocks
MA usage statistics:

	allocation statistics:
					      heap	     stack
					      ----	     -----
	current number of blocks	         0	         0
	maximum number of blocks	        22	        57
	current total bytes		         0	         0
	maximum total bytes		   2637384	  22511272
	maximum total K-bytes		      2638	     22512
	maximum total M-bytes		         3	        23


                                NWChem Input Module
                                -------------------





                                     CITATION
                                     --------
                Please cite the following reference when publishing
                           results obtained with NWChem:

                 M. Valiev, E.J. Bylaska, N. Govind, K. Kowalski,
              T.P. Straatsma, H.J.J. van Dam, D. Wang, J. Nieplocha,
                        E. Apra, T.L. Windus, W.A. de Jong
                 "NWChem: a comprehensive and scalable open-source
                  solution for large scale molecular simulations"
                      Comput. Phys. Commun. 181, 1477 (2010)
                           doi:10.1016/j.cpc.2010.04.018

                                      AUTHORS
                                      -------
     E. Apra, E. J. Bylaska, N. Govind, K. Kowalski, M. Valiev, W. A. de Jong,
      T. P. Straatsma, H. J. J. van Dam, D. Wang, T. L. Windus, N. P. Bauman,
       A. Panyala, J. Hammond, J. Autschbach, K. Bhaskaran-Nair, J. Brabec,
    K. Lopata, S. A. Fischer, S. Krishnamoorthy, M. Jacquelin, W. Ma, M. Klemm,
       O. Villa, Y. Chen, V. Anisimov, F. Aquino, S. Hirata, M. T. Hackler,
           Eric Hermes, L. Jensen, J. E. Moore, J. C. Becca, V. Konjkov,
            D. Mejia-Rodriguez, T. Risthaus, M. Malagoli, A. Marenich,
   A. Otero-de-la-Roza, J. Mullin, P. Nichols, R. Peverati, J. Pittner, Y. Zhao,
        P.-D. Fan, A. Fonari, M. J. Williamson, R. J. Harrison, J. R. Rehr,
      M. Dupuis, D. Silverstein, D. M. A. Smith, J. Nieplocha, V. Tipparaju,
      M. Krishnan, B. E. Van Kuiken, A. Vazquez-Mayagoitia, M. Swart, Q. Wu,
   T. Van Voorhis, A. A. Auer, M. Nooijen, L. D. Crosby, E. Brown, G. Cisneros,
     G. I. Fann, H. Fruchtl, J. Garza, K. Hirao, R. A. Kendall, J. A. Nichols,
       K. Tsemekhman, K. Wolinski, J. Anchell, D. E. Bernholdt, P. Borowski,
       T. Clark, D. Clerc, H. Dachsel, M. J. O. Deegan, K. Dyall, D. Elwood,
      E. Glendening, M. Gutowski, A. C. Hess, J. Jaffe, B. G. Johnson, J. Ju,
        R. Kobayashi, R. Kutteh, Z. Lin, R. Littlefield, X. Long, B. Meng,
      T. Nakajima, S. Niu, L. Pollack, M. Rosing, K. Glaesemann, G. Sandrone,
      M. Stave, H. Taylor, G. Thomas, J. H. van Lenthe, A. T. Wong, Z. Zhang.

 Total times  cpu:        0.5s     wall:        0.5s
