 argument  1 = bh3_aug-cc-pvtz.inp
                                         
                                         


             Northwest Computational Chemistry Package (NWChem) 7.0.0
             --------------------------------------------------------


                    Environmental Molecular Sciences Laboratory
                       Pacific Northwest National Laboratory
                                Richland, WA 99352

                              Copyright (c) 1994-2019
                       Pacific Northwest National Laboratory
                            Battelle Memorial Institute

             NWChem is an open-source computational chemistry package
                        distributed under the terms of the
                      Educational Community License (ECL) 2.0
             A copy of the license is included with this distribution
                              in the LICENSE.TXT file

                                  ACKNOWLEDGMENT
                                  --------------

            This software and its documentation were developed at the
            EMSL at Pacific Northwest National Laboratory, a multiprogram
            national laboratory, operated for the U.S. Department of Energy
            by Battelle under Contract Number DE-AC05-76RL01830. Support
            for this work was provided by the Department of Energy Office
            of Biological and Environmental Research, Office of Basic
            Energy Sciences, and the Office of Advanced Scientific Computing.


           Job information
           ---------------

    hostname        = Amanda-Dewyers-MacBook-Air.local
    program         = nwchem
    date            = Fri Sep 11 16:52:07 2020

    compiled        = Fri_Jul_03_06:05:09_2020
    source          = /private/tmp/nwchem-20200703-71421-tc8c0i/nwchem-7.0.0
    nwchem branch   = 7.0.0
    nwchem revision = 2c9a1c7c
    ga revision     = 5.7.1
    use scalapack   = T
    input           = bh3_aug-cc-pvtz.inp
    prefix          = bh3_aug-cc-pvtz.
    data base       = ./bh3_aug-cc-pvtz.db
    status          = startup
    nproc           =        1
    time left       =     -1s



           Memory information
           ------------------

    heap     =   13107196 doubles =    100.0 Mbytes
    stack    =   13107201 doubles =    100.0 Mbytes
    global   =   26214400 doubles =    200.0 Mbytes (distinct from heap & stack)
    total    =   52428797 doubles =    400.0 Mbytes
    verify   = yes
    hardfail = no 


           Directory information
           ---------------------

  0 permanent = .
  0 scratch   = .




                                NWChem Input Module
                                -------------------


                                     test case
                                     ---------
 D3H symmetry detected

          ------
          auto-z
          ------
  Looking for out-of-plane bends
  no constraints, skipping    0.0000000000000000     
  no constraints, skipping    0.0000000000000000     


                             Geometry "geometry" -> ""
                             -------------------------

 Output coordinates in a.u. (scale by  1.000000000 to convert to a.u.)

  No.       Tag          Charge          X              Y              Z
 ---- ---------------- ---------- -------------- -------------- --------------
    1 B                    5.0000     0.00000000     0.00000000     0.00000000
    2 H                    1.0000     0.83517244     0.83517244     0.00000000
    3 H                    1.0000     0.30569433    -1.14086677     0.00000000
    4 H                    1.0000    -1.14086677     0.30569433     0.00000000

      Atomic Mass 
      ----------- 

      B                 11.009310
      H                  1.007825


 Effective nuclear repulsion energy (a.u.)      14.1663517928

            Nuclear Dipole moment (a.u.) 
            ----------------------------
        X                 Y               Z
 ---------------- ---------------- ----------------
    -0.0000000000    -0.0000000000     0.0000000000

      Symmetry information
      --------------------

 Group name             D3h       
 Group number             27
 Group order              12
 No. of unique centers     2

      Symmetry unique atoms

     1    2



                                Z-matrix (autoz)
                                -------- 

 Units are Angstrom for bonds and degrees for angles

      Type          Name      I     J     K     L     M      Value
      ----------- --------  ----- ----- ----- ----- ----- ----------
    1 Stretch                  1     2                       0.62502
    2 Stretch                  1     3                       0.62502
    3 Stretch                  1     4                       0.62502
    4 Bend                     2     1     3               120.00000
    5 Bend                     2     1     4               120.00000
    6 Bend                     3     1     4               120.00000
    7 Torsion                  2     1     3     4         180.00000
    8 Torsion                  2     1     4     3         180.00000
    9 Torsion                  3     1     2     4         180.00000
   10 Torsion                  2     4     1     3         180.00000
   11 Torsion                  3     2     1     4         180.00000
   12 Torsion                  2     3     1     4         180.00000


            XYZ format geometry
            -------------------
     4
 geometry
 B                     0.00000000     0.00000000     0.00000000
 H                     0.44195425     0.44195425     0.00000000
 H                     0.16176648    -0.60372074     0.00000000
 H                    -0.60372074     0.16176648     0.00000000

 ==============================================================================
                                internuclear distances
 ------------------------------------------------------------------------------
       center one      |      center two      | atomic units |       a.u.
 ------------------------------------------------------------------------------
    2 H                |   1 B                |     1.18111  |     1.18111
    3 H                |   1 B                |     1.18111  |     1.18111
    4 H                |   1 B                |     1.18111  |     1.18111
 ------------------------------------------------------------------------------
                         number of included internuclear distances:          3
 ==============================================================================



 ==============================================================================
                                 internuclear angles
 ------------------------------------------------------------------------------
        center 1       |       center 2       |       center 3       |  degrees
 ------------------------------------------------------------------------------
    2 H                |   1 B                |   3 H                |   120.00
    2 H                |   1 B                |   4 H                |   120.00
    3 H                |   1 B                |   4 H                |   120.00
 ------------------------------------------------------------------------------
                            number of included internuclear angles:          3
 ==============================================================================



  library name resolved from: .nwchemrc
  library file name is: </usr/local/Cellar/nwchem/7.0.0_2/share/nwchem/libraries/>
  


 Summary of "ao basis" -> "" (cartesian)
 ------------------------------------------------------------------------------
       Tag                 Description            Shells   Functions and Types
 ---------------- ------------------------------  ------  ---------------------
 *                        aug-cc-pvtz                 on all atoms 



                                 NWChem DFT Module
                                 -----------------


                                     test case


                      Basis "ao basis" -> "ao basis" (cartesian)
                      -----
  B (Boron)
  ---------
            Exponent  Coefficients 
       -------------- ---------------------------------------------------------
  1 S  5.47300000E+03  0.000555
  1 S  8.20900000E+02  0.004291
  1 S  1.86800000E+02  0.021949
  1 S  5.28300000E+01  0.084441
  1 S  1.70800000E+01  0.238557
  1 S  5.99900000E+00  0.435072
  1 S  2.20800000E+00  0.341955
  1 S  2.41500000E-01 -0.009545

  2 S  5.47300000E+03 -0.000112
  2 S  8.20900000E+02 -0.000868
  2 S  1.86800000E+02 -0.004484
  2 S  5.28300000E+01 -0.017683
  2 S  1.70800000E+01 -0.053639
  2 S  5.99900000E+00 -0.119005
  2 S  2.20800000E+00 -0.165824
  2 S  2.41500000E-01  0.595981

  3 S  5.87900000E-01  1.000000

  4 S  8.61000000E-02  1.000000

  5 S  2.91400000E-02  1.000000

  6 P  1.20500000E+01  0.013118
  6 P  2.61300000E+00  0.079896
  6 P  7.47500000E-01  0.277275

  7 P  2.38500000E-01  1.000000

  8 P  7.69800000E-02  1.000000

  9 P  2.09600000E-02  1.000000

 10 D  6.61000000E-01  1.000000

 11 D  1.99000000E-01  1.000000

 12 D  6.04000000E-02  1.000000

 13 F  4.90000000E-01  1.000000

 14 F  1.63000000E-01  1.000000

  H (Hydrogen)
  ------------
            Exponent  Coefficients 
       -------------- ---------------------------------------------------------
  1 S  3.38700000E+01  0.006068
  1 S  5.09500000E+00  0.045308
  1 S  1.15900000E+00  0.202822

  2 S  3.25800000E-01  1.000000

  3 S  1.02700000E-01  1.000000

  4 S  2.52600000E-02  1.000000

  5 P  1.40700000E+00  1.000000

  6 P  3.88000000E-01  1.000000

  7 P  1.02000000E-01  1.000000

  8 D  1.05700000E+00  1.000000

  9 D  2.47000000E-01  1.000000



 Summary of "ao basis" -> "ao basis" (cartesian)
 ------------------------------------------------------------------------------
       Tag                 Description            Shells   Functions and Types
 ---------------- ------------------------------  ------  ---------------------
 B                        aug-cc-pvtz               14       55   5s4p3d2f
 H                        aug-cc-pvtz                9       25   4s3p2d




 Summary of "ao basis" -> "ao basis" (cartesian)
 ------------------------------------------------------------------------------
       Tag                 Description            Shells   Functions and Types
 ---------------- ------------------------------  ------  ---------------------
 B                        aug-cc-pvtz               14       55   5s4p3d2f
 H                        aug-cc-pvtz                9       25   4s3p2d


      Symmetry analysis of basis
      --------------------------

        a1'        26
        a1"         2
        a2'         7
        a2"        13
        e'         58
        e"         24

  Caching 1-el integrals 
  Rotation of axis 

            General Information
            -------------------
          SCF calculation type: DFT
          Wavefunction type:  closed shell.
          No. of atoms     :     4
          No. of electrons :     8
           Alpha electrons :     4
            Beta electrons :     4
          Charge           :     0
          Spin multiplicity:     1
          Use of symmetry is: on ; symmetry adaption is: on 
          Maximum number of iterations:  30
          AO basis - number of functions:   130
                     number of shells:    41
          Convergence on energy requested:  1.00D-06
          Convergence on density requested:  1.00D-05
          Convergence on gradient requested:  5.00D-04

              XC Information
              --------------
                         B3LYP Method XC Potential
                     Hartree-Fock (Exact) Exchange  0.200          
                        Slater Exchange Functional  0.800 local    
                    Becke 1988 Exchange Functional  0.720 non-local
              Lee-Yang-Parr Correlation Functional  0.810          
                  VWN I RPA Correlation Functional  0.190 local    

             Grid Information
             ----------------
          Grid used for XC integration:  medium    
          Radial quadrature: Mura-Knowles        
          Angular quadrature: Lebedev. 
          Tag              B.-S. Rad. Rad. Pts. Rad. Cut. Ang. Pts.
          ---              ---------- --------- --------- ---------
          B                   0.85       49          12.0       434
          H                   0.35       45          12.0       434
          Grid pruning is: on 
          Number of quadrature shells:    94
          Spatial weights used:  Erf1

          Convergence Information
          -----------------------
          Convergence aids based upon iterative change in 
          total energy or number of iterations. 
          Levelshifting, if invoked, occurs when the 
          HOMO/LUMO gap drops below (HL_TOL):  1.00D-02
          DIIS, if invoked, will attempt to extrapolate 
          using up to (NFOCK): 10 stored Fock matrices.

                    Damping( 0%)  Levelshifting(0.5)       DIIS
                  --------------- ------------------- ---------------
          dE  on:    start            ASAP                start   
          dE off:    2 iters         30 iters            30 iters 


      Screening Tolerance Information
      -------------------------------
          Density screening/tol_rho:  1.00D-10
          AO Gaussian exp screening on grid/accAOfunc:  14
          CD Gaussian exp screening on grid/accCDfunc:  20
          XC Gaussian exp screening on grid/accXCfunc:  20
          Schwarz screening/accCoul:  1.00D-08


 WARNING : Found     5 linear dependencies 
 S eigenvalue threshold:     1.00000E-05
 Smallest S eigenvalue :     1.58082E-06
 Largest  S eigenvalue :     6.11843E-06


 !! The overlap matrix has   5 vectors deemed linearly dependent with
    eigenvalues:
 1.58D-06 1.60D-06 1.60D-06 6.04D-06 6.12D-06


      Superposition of Atomic Density Guess
      -------------------------------------

 Sum of atomic energies:         -26.03396467

      Non-variational initial energy
      ------------------------------

 Total energy =     -26.428388
 1-e energy   =     -56.825652
 2-e energy   =      16.230912
 HOMO         =      -0.688501
 LUMO         =      -0.225136


      Symmetry analysis of molecular orbitals - initial
      -------------------------------------------------


 !! scf_movecs_sym_adapt:   72 vectors were symmetry contaminated

  Symmetry fudging

 !! scf_movecs_sym_adapt:    2 vectors were symmetry contaminated

  Numbering of irreducible representations: 

     1 a1'         2 a1"         3 a2'         4 a2"         5 e'      
     6 e"      

  Orbital symmetries:

     1 a1'         2 a1'         3 e'          4 e'          5 a2"     
     6 a1'         7 e'          8 e'          9 a2"        10 a1'     
    11 e'         12 e'         13 e'         14 e'      

   Time after variat. SCF:      0.6
   Time prior to 1st pass:      0.6

 Integral file          = ./bh3_aug-cc-pvtz.aoints.0
 Record size in doubles =  65536        No. of integs per rec  =  43688
 Max. records in memory =    123        Max. records in file   = 183604
 No. of bits per label  =      8        No. of bits per value  =     64


 #quartets = 1.079D+05 #integrals = 5.711D+06 #direct =  0.0% #cached =100.0%


 Grid_pts file          = ./bh3_aug-cc-pvtz.gridpts.0
 Record size in doubles =  12289        No. of grid_pts per rec  =   3070
 Max. records in memory =     16        Max. recs in file   =    979145

 Grid integrated density:       8.148568379898
 Requested integration accuracy:   0.10E-05

 !! scf_movecs_sym_adapt:   73 vectors were symmetry contaminated

  Symmetry fudging

 !! scf_movecs_sym_adapt:    5 vectors were symmetry contaminated

 Warning: spatial symmetry breaking: alpha =  2.99D-04

           Memory utilization after 1st SCF pass: 
           Heap Space remaining (MW):        4.85             4845836
          Stack Space remaining (MW):       13.11            13106412

   convergence    iter        energy       DeltaE   RMS-Dens  Diis-err    time
 ---------------- ----- ----------------- --------- --------- ---------  ------
 d= 0,ls=0.0,diis     1    -25.3976526139 -3.96D+01  5.19D-03  3.05D-01     1.6
 Warning: spatial symmetry breaking: alpha =  3.19D-04
 d= 0,ls=0.0,diis     2    -25.3136323763  8.40D-02  1.67D-03  9.29D-02     1.9
 Warning: spatial symmetry breaking: alpha =  3.24D-04
 d= 0,ls=0.0,diis     3    -25.3251561802 -1.15D-02  2.19D-04  2.19D-03     2.3
 Warning: spatial symmetry breaking: alpha =  3.19D-04
 d= 0,ls=0.0,diis     4    -25.3253650305 -2.09D-04  6.40D-05  4.52D-05     2.6
 Warning: spatial symmetry breaking: alpha =  3.19D-04
 d= 0,ls=0.0,diis     5    -25.3253670512 -2.02D-06  1.79D-06  2.99D-05     2.9
 Warning: spatial symmetry breaking: alpha =  3.19D-04
 d= 0,ls=0.0,diis     6    -25.3253670560 -4.78D-09  1.24D-07  2.98D-05     3.3


         Total DFT energy =      -25.325367055982
      One electron energy =      -59.203469241373
           Coulomb energy =       25.562404090922
    Exchange-Corr. energy =       -5.850653698343
 Nuclear repulsion energy =       14.166351792812

 Numeric. integr. density =        8.000002553144

     Total iterative time =      2.7s



                  Occupations of the irreducible representations
                  ----------------------------------------------

                     irrep           alpha         beta
                     --------     --------     --------
                     a1'               2.0          2.0
                     a1"               0.0          0.0
                     a2'               0.0          0.0
                     a2"               0.0          0.0
                     e'                2.0          2.0
                     e"                0.0          0.0


                       DFT Final Molecular Orbital Analysis
                       ------------------------------------

 Vector    1  Occ=2.000000D+00  E=-6.721882D+00  Symmetry=a1'
              MO Center=  1.1D-18, -5.8D-19,  1.8D-35, r^2= 4.3D-02
   Bfn.  Coefficient  Atom+Function         Bfn.  Coefficient  Atom+Function  
  ----- ------------  ---------------      ----- ------------  ---------------
     1      1.003041  1 B  s                  2      0.086669  1 B  s          
    24      0.086516  1 B  dxx               27      0.086516  1 B  dyy        
     3     -0.057360  1 B  s                 29      0.056104  1 B  dzz        
    89      0.036204  3 H  py               113      0.036204  4 H  px         
   100     -0.028902  3 H  dxx              128     -0.028902  4 H  dyy        

 Vector    2  Occ=2.000000D+00  E=-5.870306D-01  Symmetry=a1'
              MO Center=  4.4D-17,  5.4D-16, -2.8D-16, r^2= 9.0D-01
   Bfn.  Coefficient  Atom+Function         Bfn.  Coefficient  Atom+Function  
  ----- ------------  ---------------      ----- ------------  ---------------
     2      0.563776  1 B  s                 24      0.250079  1 B  dxx        
    27      0.250079  1 B  dyy               29      0.159617  1 B  dzz        
    56      0.157910  2 H  s                 81      0.157910  3 H  s          
   106      0.157910  4 H  s                  3     -0.114143  1 B  s          
   100     -0.079584  3 H  dxx              128     -0.079584  4 H  dyy        

 Vector    3  Occ=2.000000D+00  E=-4.387583D-01  Symmetry=e'
              MO Center=  1.0D-01,  1.0D-01, -4.8D-32, r^2= 8.2D-01
   Bfn.  Coefficient  Atom+Function         Bfn.  Coefficient  Atom+Function  
  ----- ------------  ---------------      ----- ------------  ---------------
     6      0.309935  1 B  px                 7      0.309935  1 B  py         
    56      0.269521  2 H  s                 41      0.138918  1 B  fxzz       
    44      0.138918  1 B  fyzz              36      0.134118  1 B  fxxx       
    37      0.134118  1 B  fxxy              39      0.134118  1 B  fxyy       
    42      0.134118  1 B  fyyy              81     -0.134760  3 H  s          

 Vector    4  Occ=2.000000D+00  E=-4.387582D-01  Symmetry=e'
              MO Center= -1.0D-01, -1.0D-01, -6.0D-32, r^2= 8.2D-01
   Bfn.  Coefficient  Atom+Function         Bfn.  Coefficient  Atom+Function  
  ----- ------------  ---------------      ----- ------------  ---------------
     6      0.309941  1 B  px                 7     -0.309941  1 B  py         
    81      0.233411  3 H  s                106     -0.233411  4 H  s          
    41      0.138870  1 B  fxzz              44     -0.138870  1 B  fyzz       
    36      0.134095  1 B  fxxx              37     -0.134095  1 B  fxxy       
    39      0.134095  1 B  fxyy              42     -0.134095  1 B  fyyy       

 Vector    5  Occ=0.000000D+00  E=-7.417686D-02  Symmetry=a2"
              MO Center=  9.8D-18,  8.5D-18,  2.8D-16, r^2= 2.5D+00
   Bfn.  Coefficient  Atom+Function         Bfn.  Coefficient  Atom+Function  
  ----- ------------  ---------------      ----- ------------  ---------------
    11      0.401908  1 B  pz                14      0.399279  1 B  pz         
     8      0.316109  1 B  pz                17      0.122383  1 B  pz         
    38      0.062840  1 B  fxxz              43      0.062840  1 B  fyyz       
    45      0.043936  1 B  fzzz             104     -0.034492  3 H  dyz        
   127     -0.034492  4 H  dxz               55      0.025914  1 B  fzzz       

 Vector    6  Occ=0.000000D+00  E= 5.061357D-03  Symmetry=a1'
              MO Center=  1.8D-13, -5.9D-13,  2.8D-14, r^2= 1.8D+01
   Bfn.  Coefficient  Atom+Function         Bfn.  Coefficient  Atom+Function  
  ----- ------------  ---------------      ----- ------------  ---------------
     5     15.175797  1 B  s                 59     -4.277228  2 H  s          
    84     -4.277228  3 H  s                109     -4.277228  4 H  s          
     4     -2.918218  1 B  s                 35     -0.998284  1 B  dzz        
    30     -0.822632  1 B  dxx               33     -0.822632  1 B  dyy        
    58      0.578304  2 H  s                 83      0.578304  3 H  s          

 Vector    7  Occ=0.000000D+00  E= 2.470448D-02  Symmetry=e'
              MO Center= -4.6D-01, -4.6D-01,  5.2D-15, r^2= 2.3D+01
   Bfn.  Coefficient  Atom+Function         Bfn.  Coefficient  Atom+Function  
  ----- ------------  ---------------      ----- ------------  ---------------
    59     10.033906  2 H  s                 84     -5.016953  3 H  s          
   109     -5.016953  4 H  s                 15     -2.519302  1 B  px         
    16     -2.519302  1 B  py                58     -0.658583  2 H  s          
    31     -0.574144  1 B  dxy               57      0.478797  2 H  s          
    91     -0.369529  3 H  px               117     -0.369529  4 H  py         

 Vector    8  Occ=0.000000D+00  E= 2.470623D-02  Symmetry=e'
              MO Center=  4.6D-01,  4.6D-01,  1.5D-27, r^2= 2.3D+01
   Bfn.  Coefficient  Atom+Function         Bfn.  Coefficient  Atom+Function  
  ----- ------------  ---------------      ----- ------------  ---------------
    84      8.683936  3 H  s                109     -8.683936  4 H  s          
    15     -2.518239  1 B  px                16      2.518239  1 B  py         
    83     -0.569184  3 H  s                108      0.569184  4 H  s          
    82      0.431179  3 H  s                107     -0.431179  4 H  s          
    92     -0.327750  3 H  py               116      0.327750  4 H  px         

 Vector    9  Occ=0.000000D+00  E= 4.109485D-02  Symmetry=a2"
              MO Center= -6.9D-17, -3.6D-17, -2.8D-14, r^2= 2.1D+01
   Bfn.  Coefficient  Atom+Function         Bfn.  Coefficient  Atom+Function  
  ----- ------------  ---------------      ----- ------------  ---------------
    14      1.520978  1 B  pz                17     -1.276175  1 B  pz         
    11      0.528767  1 B  pz                68     -0.357872  2 H  pz         
    93     -0.357872  3 H  pz               118     -0.357872  4 H  pz         
    55     -0.150124  1 B  fzzz               8      0.120530  1 B  pz         
    48     -0.082345  1 B  fxxz              53     -0.082345  1 B  fyyz       

 Vector   10  Occ=0.000000D+00  E= 6.956837D-02  Symmetry=a1'
              MO Center=  1.1D-11, -3.5D-11, -6.6D-15, r^2= 2.6D+01
   Bfn.  Coefficient  Atom+Function         Bfn.  Coefficient  Atom+Function  
  ----- ------------  ---------------      ----- ------------  ---------------
     5     52.887466  1 B  s                 59    -12.659415  2 H  s          
    84    -12.659415  3 H  s                109    -12.659415  4 H  s          
     4    -10.509661  1 B  s                 35     -4.039686  1 B  dzz        
    30     -4.003923  1 B  dxx               33     -4.003923  1 B  dyy        
    58      1.716301  2 H  s                 83      1.716301  3 H  s          

 Vector   11  Occ=0.000000D+00  E= 7.620834D-02  Symmetry=e'
              MO Center=  1.4D-02,  1.4D-02, -1.6D-15, r^2= 2.3D+01
   Bfn.  Coefficient  Atom+Function         Bfn.  Coefficient  Atom+Function  
  ----- ------------  ---------------      ----- ------------  ---------------
    59     29.403326  2 H  s                 84    -14.701663  3 H  s          
   109    -14.701663  4 H  s                 15     -5.050293  1 B  px         
    16     -5.050293  1 B  py                58     -2.138274  2 H  s          
    12     -1.744936  1 B  px                13     -1.744936  1 B  py         
    57      1.096236  2 H  s                 83      1.069137  3 H  s          

 Vector   12  Occ=0.000000D+00  E= 7.621503D-02  Symmetry=e'
              MO Center= -1.4D-02, -1.4D-02,  3.8D-15, r^2= 2.3D+01
   Bfn.  Coefficient  Atom+Function         Bfn.  Coefficient  Atom+Function  
  ----- ------------  ---------------      ----- ------------  ---------------
    84     25.456574  3 H  s                109    -25.456574  4 H  s          
    15     -5.048876  1 B  px                16      5.048876  1 B  py         
    83     -1.851757  3 H  s                108      1.851757  4 H  s          
    12     -1.746401  1 B  px                13      1.746401  1 B  py         
    82      0.965933  3 H  s                107     -0.965933  4 H  s          

 Vector   13  Occ=0.000000D+00  E= 1.219443D-01  Symmetry=e"
              MO Center= -1.3D-01,  1.5D-01,  2.4D-15, r^2= 1.1D+01
   Bfn.  Coefficient  Atom+Function         Bfn.  Coefficient  Atom+Function  
  ----- ------------  ---------------      ----- ------------  ---------------
    34      3.142739  1 B  dyz               93      2.263785  3 H  pz         
    68     -1.598964  2 H  pz                50      0.674456  1 B  fxyz       
   118     -0.664821  4 H  pz                28      0.548199  1 B  dyz        
    48      0.356604  1 B  fxxz              53     -0.356604  1 B  fyyz       
    90      0.329267  3 H  pz               129      0.264858  4 H  dyz        

 Vector   14  Occ=0.000000D+00  E= 1.219443D-01  Symmetry=e"
              MO Center=  1.3D-01, -1.5D-01,  7.2D-14, r^2= 1.1D+01
   Bfn.  Coefficient  Atom+Function         Bfn.  Coefficient  Atom+Function  
  ----- ------------  ---------------      ----- ------------  ---------------
    32      3.142739  1 B  dxz              118      2.230159  4 H  pz         
    68     -1.690832  2 H  pz                50      0.713207  1 B  fxyz       
    26      0.548199  1 B  dxz               93     -0.539327  3 H  pz         
    48     -0.337228  1 B  fxxz              53      0.337228  1 B  fyyz       
   115      0.324376  4 H  pz               102      0.266052  3 H  dxz        

 Vector   15  Occ=0.000000D+00  E= 1.248429D-01  Symmetry=e'
              MO Center= -5.5D-01, -5.5D-01, -6.0D-14, r^2= 1.3D+01
   Bfn.  Coefficient  Atom+Function         Bfn.  Coefficient  Atom+Function  
  ----- ------------  ---------------      ----- ------------  ---------------
    59      9.674015  2 H  s                 84     -4.837008  3 H  s          
   109     -4.837008  4 H  s                 31     -3.395833  1 B  dxy        
    91     -2.086078  3 H  px               117     -2.086078  4 H  py         
    15     -2.043141  1 B  px                16     -2.043141  1 B  py         
    12      1.584231  1 B  px                13      1.584231  1 B  py         

 Vector   16  Occ=0.000000D+00  E= 1.248479D-01  Symmetry=e'
              MO Center=  5.5D-01,  5.5D-01, -1.8D-14, r^2= 1.3D+01
   Bfn.  Coefficient  Atom+Function         Bfn.  Coefficient  Atom+Function  
  ----- ------------  ---------------      ----- ------------  ---------------
    84      8.369360  3 H  s                109     -8.369360  4 H  s          
    15     -2.041892  1 B  px                16      2.041892  1 B  py         
    30      1.696432  1 B  dxx               33     -1.696432  1 B  dyy        
    66     -1.693849  2 H  px                67      1.693849  2 H  py         
    12      1.584485  1 B  px                13     -1.584485  1 B  py         

 Vector   17  Occ=0.000000D+00  E= 1.268773D-01  Symmetry=a1'
              MO Center= -2.5D-12, -2.0D-12, -1.7D-15, r^2= 1.1D+01
   Bfn.  Coefficient  Atom+Function         Bfn.  Coefficient  Atom+Function  
  ----- ------------  ---------------      ----- ------------  ---------------
     5      6.784493  1 B  s                 30     -2.490104  1 B  dxx        
    33     -2.490104  1 B  dyy                4     -2.201459  1 B  s          
    92     -1.527588  3 H  py               116     -1.527588  4 H  px         
    66      1.118272  2 H  px                67      1.118272  2 H  py         
    47     -0.885678  1 B  fxxy              49     -0.885678  1 B  fxyy       

 Vector   18  Occ=0.000000D+00  E= 1.953855D-01  Symmetry=a2"
              MO Center= -1.4D-14,  7.3D-16,  5.2D-15, r^2= 1.2D+01
   Bfn.  Coefficient  Atom+Function         Bfn.  Coefficient  Atom+Function  
  ----- ------------  ---------------      ----- ------------  ---------------
    14      6.997974  1 B  pz                68     -1.945021  2 H  pz         
    93     -1.945021  3 H  pz               118     -1.945021  4 H  pz         
    11      1.325691  1 B  pz                17     -1.020761  1 B  pz         
    55     -0.697535  1 B  fzzz              48     -0.342910  1 B  fxxz       
    53     -0.342910  1 B  fyyz              65     -0.280458  2 H  pz         

 Vector   19  Occ=0.000000D+00  E= 1.960457D-01  Symmetry=a1'
              MO Center= -2.5D-11,  1.5D-11, -4.1D-16, r^2= 2.0D+01
   Bfn.  Coefficient  Atom+Function         Bfn.  Coefficient  Atom+Function  
  ----- ------------  ---------------      ----- ------------  ---------------
     5     69.730389  1 B  s                 59    -14.901168  2 H  s          
    84    -14.901168  3 H  s                109    -14.901168  4 H  s          
     4    -13.944611  1 B  s                 35     -8.111241  1 B  dzz        
    30     -7.103807  1 B  dxx               33     -7.103807  1 B  dyy        
    24     -2.220442  1 B  dxx               27     -2.220442  1 B  dyy        

 Vector   20  Occ=0.000000D+00  E= 2.126361D-01  Symmetry=e'
              MO Center=  4.3D-01,  4.3D-01, -8.8D-16, r^2= 1.5D+01
   Bfn.  Coefficient  Atom+Function         Bfn.  Coefficient  Atom+Function  
  ----- ------------  ---------------      ----- ------------  ---------------
    59     30.515913  2 H  s                 84    -15.257956  3 H  s          
   109    -15.257956  4 H  s                 12     -6.748475  1 B  px         
    13     -6.748475  1 B  py                15     -4.513856  1 B  px         
    16     -4.513856  1 B  py                31     -2.756337  1 B  dxy        
    66      2.544452  2 H  px                67      2.544452  2 H  py         

 Vector   21  Occ=0.000000D+00  E= 2.126481D-01  Symmetry=e'
              MO Center= -4.3D-01, -4.3D-01, -1.6D-16, r^2= 1.5D+01
   Bfn.  Coefficient  Atom+Function         Bfn.  Coefficient  Atom+Function  
  ----- ------------  ---------------      ----- ------------  ---------------
    84     26.423304  3 H  s                109    -26.423304  4 H  s          
    12     -6.753020  1 B  px                13      6.753020  1 B  py         
    15     -4.513148  1 B  px                16      4.513148  1 B  py         
    92     -2.853651  3 H  py               116      2.853651  4 H  px         
    83     -2.015643  3 H  s                108      2.015643  4 H  s          

 Vector   22  Occ=0.000000D+00  E= 2.987158D-01  Symmetry=a2'
              MO Center= -8.2D-13, -1.5D-12, -8.7D-18, r^2= 8.6D+00
   Bfn.  Coefficient  Atom+Function         Bfn.  Coefficient  Atom+Function  
  ----- ------------  ---------------      ----- ------------  ---------------
    91      7.878980  3 H  px               117     -7.878980  4 H  py         
    66     -5.767813  2 H  px                67      5.767813  2 H  py         
    47      3.554616  1 B  fxxy              49     -3.554616  1 B  fxyy       
    92      2.111166  3 H  py               116     -2.111166  4 H  px         
    46      1.184872  1 B  fxxx              52     -1.184872  1 B  fyyy       

 Vector   23  Occ=0.000000D+00  E= 3.093987D-01  Symmetry=a1'
              MO Center=  2.6D-13, -3.2D-13,  5.7D-29, r^2= 8.8D+00
   Bfn.  Coefficient  Atom+Function         Bfn.  Coefficient  Atom+Function  
  ----- ------------  ---------------      ----- ------------  ---------------
    92     -5.282134  3 H  py               116     -5.282134  4 H  px         
    29      5.103620  1 B  dzz               66      3.866791  2 H  px         
    67      3.866791  2 H  py                24      3.757285  1 B  dxx        
    27      3.757285  1 B  dyy               57      3.256281  2 H  s          
    82      3.256281  3 H  s                107      3.256281  4 H  s          

 Vector   24  Occ=0.000000D+00  E= 3.270955D-01  Symmetry=e"
              MO Center= -1.2D-01, -2.6D-02,  8.8D-14, r^2= 8.0D+00
   Bfn.  Coefficient  Atom+Function         Bfn.  Coefficient  Atom+Function  
  ----- ------------  ---------------      ----- ------------  ---------------
   118      6.185880  4 H  pz                93     -4.382627  3 H  pz         
    32      3.349960  1 B  dxz               34     -1.821601  1 B  dyz        
    68     -1.803253  2 H  pz                26      1.455094  1 B  dxz        
   115      0.820574  4 H  pz                28     -0.791234  1 B  dyz        
   127      0.602800  4 H  dxz               90     -0.581367  3 H  pz         

 Vector   25  Occ=0.000000D+00  E= 3.270955D-01  Symmetry=e"
              MO Center=  1.2D-01,  2.6D-02, -7.2D-14, r^2= 8.0D+00
   Bfn.  Coefficient  Atom+Function         Bfn.  Coefficient  Atom+Function  
  ----- ------------  ---------------      ----- ------------  ---------------
    68      6.101730  2 H  pz                93     -4.612528  3 H  pz         
    34     -3.349960  1 B  dyz               32     -1.821601  1 B  dxz        
   118     -1.489202  4 H  pz                28     -1.455094  1 B  dyz        
    65      0.809411  2 H  pz                26     -0.791234  1 B  dxz        
    50     -0.717812  1 B  fxyz              90     -0.611864  3 H  pz         

 Vector   26  Occ=0.000000D+00  E= 3.288048D-01  Symmetry=e'
              MO Center= -3.9D-01, -3.9D-01,  7.4D-14, r^2= 8.8D+00
   Bfn.  Coefficient  Atom+Function         Bfn.  Coefficient  Atom+Function  
  ----- ------------  ---------------      ----- ------------  ---------------
    59     12.904063  2 H  s                 84     -6.452032  3 H  s          
   109     -6.452032  4 H  s                 31     -5.453872  1 B  dxy        
    91     -3.690278  3 H  px               117     -3.690278  4 H  py         
    66      3.276526  2 H  px                67      3.276526  2 H  py         
    25     -2.375359  1 B  dxy               15     -2.152558  1 B  px         

 Vector   27  Occ=0.000000D+00  E= 3.288228D-01  Symmetry=e'
              MO Center=  3.9D-01,  3.9D-01, -1.3D-13, r^2= 8.8D+00
   Bfn.  Coefficient  Atom+Function         Bfn.  Coefficient  Atom+Function  
  ----- ------------  ---------------      ----- ------------  ---------------
    84     11.176453  3 H  s                109    -11.176453  4 H  s          
    92     -4.399885  3 H  py               116      4.399885  4 H  px         
    30      2.726043  1 B  dxx               33     -2.726043  1 B  dyy        
    66     -2.562649  2 H  px                67      2.562649  2 H  py         
    15     -2.151206  1 B  px                16      2.151206  1 B  py         

 Vector   28  Occ=0.000000D+00  E= 3.353249D-01  Symmetry=e'
              MO Center=  4.6D-02,  4.6D-02,  4.6D-14, r^2= 8.7D+00
   Bfn.  Coefficient  Atom+Function         Bfn.  Coefficient  Atom+Function  
  ----- ------------  ---------------      ----- ------------  ---------------
    12     12.871846  1 B  px                13     12.871846  1 B  py         
    66     -7.596998  2 H  px                67     -7.596998  2 H  py         
    92     -7.368459  3 H  py               116     -7.368459  4 H  px         
    91     -6.744079  3 H  px               117     -6.744079  4 H  py         
    46      2.481064  1 B  fxxx              47      2.481064  1 B  fxxy       

 Vector   29  Occ=0.000000D+00  E= 3.353700D-01  Symmetry=e'
              MO Center= -4.2D-02, -4.2D-02, -1.2D-14, r^2= 8.7D+00
   Bfn.  Coefficient  Atom+Function         Bfn.  Coefficient  Atom+Function  
  ----- ------------  ---------------      ----- ------------  ---------------
    12     12.858000  1 B  px                13    -12.858000  1 B  py         
    92      7.702323  3 H  py               116     -7.702323  4 H  px         
    91     -7.102040  3 H  px               117      7.102040  4 H  py         
    66     -6.882321  2 H  px                67      6.882321  2 H  py         
    46      2.470394  1 B  fxxx              47     -2.470394  1 B  fxxy       

 Vector   30  Occ=0.000000D+00  E= 3.378177D-01  Symmetry=a2"
              MO Center=  2.2D-13,  5.9D-13,  3.6D-15, r^2= 8.0D+00
   Bfn.  Coefficient  Atom+Function         Bfn.  Coefficient  Atom+Function  
  ----- ------------  ---------------      ----- ------------  ---------------
    14     12.469352  1 B  pz                68     -8.547953  2 H  pz         
    93     -8.547953  3 H  pz               118     -8.547953  4 H  pz         
    48      5.834544  1 B  fxxz              53      5.834544  1 B  fyyz       
    11      5.100451  1 B  pz                55      4.730090  1 B  fzzz       
    45      0.257462  1 B  fzzz              17     -0.250855  1 B  pz         

 Vector   31  Occ=0.000000D+00  E= 4.380527D-01  Symmetry=a1'
              MO Center= -1.9D-12, -5.0D-12, -2.3D-15, r^2= 1.2D+01
   Bfn.  Coefficient  Atom+Function         Bfn.  Coefficient  Atom+Function  
  ----- ------------  ---------------      ----- ------------  ---------------
     5     54.537509  1 B  s                 59    -10.666636  2 H  s          
    84    -10.666636  3 H  s                109    -10.666636  4 H  s          
    35     -8.605004  1 B  dzz               30     -7.990060  1 B  dxx        
    33     -7.990060  1 B  dyy               29     -6.413901  1 B  dzz        
     4     -5.861111  1 B  s                 24     -5.836017  1 B  dxx        

 Vector   32  Occ=0.000000D+00  E= 4.736059D-01  Symmetry=a1'
              MO Center=  6.8D-13,  1.7D-14, -1.2D-15, r^2= 6.5D+00
   Bfn.  Coefficient  Atom+Function         Bfn.  Coefficient  Atom+Function  
  ----- ------------  ---------------      ----- ------------  ---------------
     5     27.624582  1 B  s                 59     -5.744021  2 H  s          
    84     -5.744021  3 H  s                109     -5.744021  4 H  s          
     4     -4.597886  1 B  s                 35     -4.246358  1 B  dzz        
    47      3.093247  1 B  fxxy              49      3.093247  1 B  fxyy       
    30     -3.077056  1 B  dxx               33     -3.077056  1 B  dyy        

 Vector   33  Occ=0.000000D+00  E= 4.828003D-01  Symmetry=e"
              MO Center= -1.5D-01,  2.1D-03, -3.0D-16, r^2= 5.1D+00
   Bfn.  Coefficient  Atom+Function         Bfn.  Coefficient  Atom+Function  
  ----- ------------  ---------------      ----- ------------  ---------------
    50      6.682406  1 B  fxyz              28     -2.819433  1 B  dyz        
   129      2.055048  4 H  dyz              102      1.424092  3 H  dxz        
    48      1.410590  1 B  fxxz              53     -1.410590  1 B  fyyz       
    77     -1.189334  2 H  dxz               26     -1.145512  1 B  dxz        
    40      0.552554  1 B  fxyz              34      0.430490  1 B  dyz        

 Vector   34  Occ=0.000000D+00  E= 4.828003D-01  Symmetry=e"
              MO Center=  1.5D-01, -2.1D-03, -1.1D-16, r^2= 5.1D+00
   Bfn.  Coefficient  Atom+Function         Bfn.  Coefficient  Atom+Function  
  ----- ------------  ---------------      ----- ------------  ---------------
    48      3.341203  1 B  fxxz              53     -3.341203  1 B  fyyz       
    26      2.819433  1 B  dxz               50     -2.821180  1 B  fxyz       
    79      1.633155  2 H  dyz              102     -1.481672  3 H  dxz        
    28     -1.145512  1 B  dyz               77     -1.119563  2 H  dxz        
   104     -0.980270  3 H  dyz              127      0.962675  4 H  dxz        

 Vector   35  Occ=0.000000D+00  E= 5.459428D-01  Symmetry=e'
              MO Center=  2.7D-01,  2.7D-01,  5.3D-16, r^2= 8.9D+00
   Bfn.  Coefficient  Atom+Function         Bfn.  Coefficient  Atom+Function  
  ----- ------------  ---------------      ----- ------------  ---------------
    59     19.979937  2 H  s                 84     -9.989969  3 H  s          
   109     -9.989969  4 H  s                 12     -5.745585  1 B  px         
    13     -5.745585  1 B  py                51      4.608743  1 B  fxzz       
    54      4.608743  1 B  fyzz              46      3.615686  1 B  fxxx       
    47      3.615686  1 B  fxxy              49      3.615686  1 B  fxyy       

 Vector   36  Occ=0.000000D+00  E= 5.459657D-01  Symmetry=e'
              MO Center= -2.8D-01, -2.8D-01, -2.2D-16, r^2= 8.9D+00
   Bfn.  Coefficient  Atom+Function         Bfn.  Coefficient  Atom+Function  
  ----- ------------  ---------------      ----- ------------  ---------------
    84     17.293689  3 H  s                109    -17.293689  4 H  s          
    12     -5.754875  1 B  px                13      5.754875  1 B  py         
    51      4.605006  1 B  fxzz              54     -4.605006  1 B  fyzz       
    46      3.602128  1 B  fxxx              47     -3.602128  1 B  fxxy       
    49      3.602128  1 B  fxyy              52     -3.602128  1 B  fyyy       

 Vector   37  Occ=0.000000D+00  E= 5.630118D-01  Symmetry=a2"
              MO Center= -1.6D-14, -1.5D-14,  1.7D-16, r^2= 6.9D+00
   Bfn.  Coefficient  Atom+Function         Bfn.  Coefficient  Atom+Function  
  ----- ------------  ---------------      ----- ------------  ---------------
    14      5.238701  1 B  pz                55     -3.629937  1 B  fzzz       
    48     -2.963364  1 B  fxxz              53     -2.963364  1 B  fyyz       
    11      2.811195  1 B  pz                65     -0.671430  2 H  pz         
    90     -0.671430  3 H  pz               115     -0.671430  4 H  pz         
    45     -0.593173  1 B  fzzz              17     -0.585680  1 B  pz         

 Vector   38  Occ=0.000000D+00  E= 6.842402D-01  Symmetry=e'
              MO Center= -3.1D-01, -3.1D-01, -1.4D-16, r^2= 6.1D+00
   Bfn.  Coefficient  Atom+Function         Bfn.  Coefficient  Atom+Function  
  ----- ------------  ---------------      ----- ------------  ---------------
    59      8.133252  2 H  s                 91     -7.775298  3 H  px         
   117     -7.775298  4 H  py                25     -7.083726  1 B  dxy        
    31     -4.593912  1 B  dxy               84     -4.066626  3 H  s          
   109     -4.066626  4 H  s                 46      3.471951  1 B  fxxx       
    47      3.471951  1 B  fxxy              49      3.471951  1 B  fxyy       

 Vector   39  Occ=0.000000D+00  E= 6.845774D-01  Symmetry=e'
              MO Center=  3.2D-01,  3.2D-01, -2.0D-16, r^2= 6.1D+00
   Bfn.  Coefficient  Atom+Function         Bfn.  Coefficient  Atom+Function  
  ----- ------------  ---------------      ----- ------------  ---------------
    84     -7.083105  3 H  s                109      7.083105  4 H  s          
    66      6.473089  2 H  px                67     -6.473089  2 H  py         
    91      4.311324  3 H  px               117     -4.311324  4 H  py         
    24     -3.612902  1 B  dxx               27      3.612902  1 B  dyy        
    46     -3.388050  1 B  fxxx              47      3.388050  1 B  fxxy       

 Vector   40  Occ=0.000000D+00  E= 6.988460D-01  Symmetry=a1'
              MO Center= -7.9D-15,  1.8D-14,  1.3D-17, r^2= 6.0D+00
   Bfn.  Coefficient  Atom+Function         Bfn.  Coefficient  Atom+Function  
  ----- ------------  ---------------      ----- ------------  ---------------
    29     10.649471  1 B  dzz                5     -8.341286  1 B  s          
    24      8.074354  1 B  dxx               27      8.074354  1 B  dyy        
    92     -6.303053  3 H  py               116     -6.303053  4 H  px         
    57      5.484692  2 H  s                 82      5.484692  3 H  s          
   107      5.484692  4 H  s                 47     -4.891692  1 B  fxxy       

 Vector   41  Occ=0.000000D+00  E= 7.140755D-01  Symmetry=e'
              MO Center= -8.4D-02, -8.4D-02, -1.7D-15, r^2= 5.4D+00
   Bfn.  Coefficient  Atom+Function         Bfn.  Coefficient  Atom+Function  
  ----- ------------  ---------------      ----- ------------  ---------------
    12     10.013122  1 B  px                13     10.013122  1 B  py         
    66     -7.676045  2 H  px                67     -7.676045  2 H  py         
    92     -6.732154  3 H  py               116     -6.732154  4 H  px         
    59     -4.313234  2 H  s                 46      4.207831  1 B  fxxx       
    47      4.207831  1 B  fxxy              49      4.207831  1 B  fxyy       

 Vector   42  Occ=0.000000D+00  E= 7.141398D-01  Symmetry=e'
              MO Center=  8.5D-02,  8.5D-02, -1.1D-16, r^2= 5.4D+00
   Bfn.  Coefficient  Atom+Function         Bfn.  Coefficient  Atom+Function  
  ----- ------------  ---------------      ----- ------------  ---------------
    12     10.034817  1 B  px                13    -10.034817  1 B  py         
    92      8.207694  3 H  py               116     -8.207694  4 H  px         
    91     -5.674560  3 H  px               117      5.674560  4 H  py         
    66     -4.747368  2 H  px                67      4.747368  2 H  py         
    46      4.226955  1 B  fxxx              47     -4.226955  1 B  fxxy       

 Vector   43  Occ=0.000000D+00  E= 7.372470D-01  Symmetry=a2'
              MO Center= -5.4D-14, -8.9D-14,  4.4D-28, r^2= 5.8D+00
   Bfn.  Coefficient  Atom+Function         Bfn.  Coefficient  Atom+Function  
  ----- ------------  ---------------      ----- ------------  ---------------
    47      9.614698  1 B  fxxy              49     -9.614698  1 B  fxyy       
    91      9.157005  3 H  px               117     -9.157005  4 H  py         
    66     -6.703393  2 H  px                67      6.703393  2 H  py         
   101     -3.334010  3 H  dxy              126      3.334010  4 H  dxy        
    46      3.204899  1 B  fxxx              52     -3.204899  1 B  fyyy       

 Vector   44  Occ=0.000000D+00  E= 7.405874D-01  Symmetry=e"
              MO Center= -6.3D-02, -5.5D-02, -1.1D-18, r^2= 5.4D+00
   Bfn.  Coefficient  Atom+Function         Bfn.  Coefficient  Atom+Function  
  ----- ------------  ---------------      ----- ------------  ---------------
   118     -6.594894  4 H  pz                93      6.349377  3 H  pz         
    26     -3.266075  1 B  dxz               28      3.058305  1 B  dyz        
    32     -2.360732  1 B  dxz               48      2.257880  1 B  fxxz       
    53     -2.257880  1 B  fyyz              34      2.210556  1 B  dyz        
   115     -1.467126  4 H  pz                90      1.412508  3 H  pz         

 Vector   45  Occ=0.000000D+00  E= 7.405874D-01  Symmetry=e"
              MO Center=  6.3D-02,  5.5D-02,  4.8D-17, r^2= 5.4D+00
   Bfn.  Coefficient  Atom+Function         Bfn.  Coefficient  Atom+Function  
  ----- ------------  ---------------      ----- ------------  ---------------
    68      7.473379  2 H  pz                50     -4.515760  1 B  fxyz       
    93     -3.949313  3 H  pz               118     -3.524066  4 H  pz         
    28     -3.266075  1 B  dyz               26     -3.058305  1 B  dxz        
    34     -2.360732  1 B  dyz               32     -2.210556  1 B  dxz        
    65      1.662558  2 H  pz                40     -1.052528  1 B  fxyz       

 Vector   46  Occ=0.000000D+00  E= 7.857851D-01  Symmetry=a2"
              MO Center= -1.7D-13,  7.4D-14,  3.1D-15, r^2= 5.0D+00
   Bfn.  Coefficient  Atom+Function         Bfn.  Coefficient  Atom+Function  
  ----- ------------  ---------------      ----- ------------  ---------------
    14     11.242907  1 B  pz                48     10.009800  1 B  fxxz       
    53     10.009800  1 B  fyyz              68     -8.681291  2 H  pz         
    93     -8.681291  3 H  pz               118     -8.681291  4 H  pz         
    11      4.563091  1 B  pz                55      4.262429  1 B  fzzz       
   104      0.698779  3 H  dyz              127      0.698779  4 H  dxz        

 Vector   47  Occ=0.000000D+00  E= 9.177291D-01  Symmetry=a1'
              MO Center= -7.8D-13,  2.7D-12,  1.4D-17, r^2= 7.7D+00
   Bfn.  Coefficient  Atom+Function         Bfn.  Coefficient  Atom+Function  
  ----- ------------  ---------------      ----- ------------  ---------------
     5     40.994260  1 B  s                 29    -14.411724  1 B  dzz        
    24    -14.210181  1 B  dxx               27    -14.210181  1 B  dyy        
    58      7.848074  2 H  s                 83      7.848074  3 H  s          
   108      7.848074  4 H  s                 59     -7.789186  2 H  s          
    84     -7.789186  3 H  s                109     -7.789186  4 H  s          

 Vector   48  Occ=0.000000D+00  E= 9.464972D-01  Symmetry=e'
              MO Center= -5.9D-02, -5.9D-02, -6.0D-16, r^2= 5.0D+00
   Bfn.  Coefficient  Atom+Function         Bfn.  Coefficient  Atom+Function  
  ----- ------------  ---------------      ----- ------------  ---------------
    12      7.291883  1 B  px                13     -7.291883  1 B  py         
     9      5.581237  1 B  px                10     -5.581237  1 B  py         
    84     -4.720945  3 H  s                109      4.720945  4 H  s          
    92      4.155369  3 H  py               116     -4.155369  4 H  px         
    82      3.133058  3 H  s                101     -3.122969  3 H  dxy        

 Vector   49  Occ=0.000000D+00  E= 9.464990D-01  Symmetry=e'
              MO Center=  5.8D-02,  5.8D-02, -1.3D-16, r^2= 5.0D+00
   Bfn.  Coefficient  Atom+Function         Bfn.  Coefficient  Atom+Function  
  ----- ------------  ---------------      ----- ------------  ---------------
    12      7.292361  1 B  px                13      7.292361  1 B  py         
     9      5.581645  1 B  px                10      5.581645  1 B  py         
    59     -5.447287  2 H  s                 66     -3.811980  2 H  px         
    67     -3.811979  2 H  py                76      3.682520  2 H  dxy        
    57      3.614063  2 H  s                 92     -3.218207  3 H  py         

 Vector   50  Occ=0.000000D+00  E= 1.070147D+00  Symmetry=a2"
              MO Center=  5.9D-15, -2.0D-15,  6.9D-17, r^2= 3.9D+00
   Bfn.  Coefficient  Atom+Function         Bfn.  Coefficient  Atom+Function  
  ----- ------------  ---------------      ----- ------------  ---------------
    11      5.252346  1 B  pz                48     -4.408872  1 B  fxxz       
    53     -4.408872  1 B  fyyz             104     -3.187274  3 H  dyz        
   127     -3.187274  4 H  dxz               14      2.358582  1 B  pz         
    77      2.333247  2 H  dxz               79      2.333247  2 H  dyz        
    55     -1.043784  1 B  fzzz             102      0.854028  3 H  dxz        

 Vector   51  Occ=0.000000D+00  E= 1.072730D+00  Symmetry=a1'
              MO Center=  1.1D-13, -2.4D-13,  4.5D-17, r^2= 4.0D+00
   Bfn.  Coefficient  Atom+Function         Bfn.  Coefficient  Atom+Function  
  ----- ------------  ---------------      ----- ------------  ---------------
     5     11.908448  1 B  s                 29      8.371554  1 B  dzz        
     3     -5.859235  1 B  s                 80     -3.750795  2 H  dzz        
   105     -3.750795  3 H  dzz              130     -3.750795  4 H  dzz        
     4     -3.451972  1 B  s                 24      3.191216  1 B  dxx        
    27      3.191216  1 B  dyy               59     -2.367921  2 H  s          

 Vector   52  Occ=0.000000D+00  E= 1.100433D+00  Symmetry=a1"
              MO Center=  3.4D-15,  2.2D-15, -6.1D-18, r^2= 3.4D+00
   Bfn.  Coefficient  Atom+Function         Bfn.  Coefficient  Atom+Function  
  ----- ------------  ---------------      ----- ------------  ---------------
   102      3.188241  3 H  dxz              129     -3.188241  4 H  dyz        
    77     -2.333954  2 H  dxz               79      2.333954  2 H  dyz        
   104      0.854287  3 H  dyz              127     -0.854287  4 H  dxz        
    96     -0.071086  3 H  dxz              123      0.071086  4 H  dyz        
    71      0.052039  2 H  dxz               73     -0.052039  2 H  dyz        

 Vector   53  Occ=0.000000D+00  E= 1.104275D+00  Symmetry=e"
              MO Center=  2.3D-01, -2.4D-04,  3.0D-17, r^2= 3.5D+00
   Bfn.  Coefficient  Atom+Function         Bfn.  Coefficient  Atom+Function  
  ----- ------------  ---------------      ----- ------------  ---------------
    28      6.715884  1 B  dyz              104     -4.393402  3 H  dyz        
    79     -4.111669  2 H  dyz               26      2.777729  1 B  dxz        
    77     -2.651430  2 H  dxz              129     -2.406664  4 H  dyz        
    50      1.978322  1 B  fxyz             127     -1.341727  4 H  dxz        
    68      0.740417  2 H  pz                93     -0.636200  3 H  pz         

 Vector   54  Occ=0.000000D+00  E= 1.104275D+00  Symmetry=e"
              MO Center= -2.3D-01,  2.4D-04,  2.8D-17, r^2= 3.5D+00
   Bfn.  Coefficient  Atom+Function         Bfn.  Coefficient  Atom+Function  
  ----- ------------  ---------------      ----- ------------  ---------------
    26      6.715884  1 B  dxz              127     -4.867826  4 H  dxz        
    77     -3.162821  2 H  dxz              102     -2.881088  3 H  dxz        
    28     -2.777729  1 B  dyz              104      2.488771  3 H  dyz        
   129      1.667045  4 H  dyz               48     -0.989161  1 B  fxxz       
    53      0.989161  1 B  fyyz              50      0.820651  1 B  fxyz       

 Vector   55  Occ=0.000000D+00  E= 1.133481D+00  Symmetry=a1'
              MO Center= -7.9D-14, -3.9D-14,  1.3D-18, r^2= 3.6D+00
   Bfn.  Coefficient  Atom+Function         Bfn.  Coefficient  Atom+Function  
  ----- ------------  ---------------      ----- ------------  ---------------
    29      6.710018  1 B  dzz                5      4.980891  1 B  s          
    24      4.529190  1 B  dxx               27      4.529190  1 B  dyy        
    47      3.428374  1 B  fxxy              49      3.428374  1 B  fxyy       
    76     -2.733300  2 H  dxy              103     -2.646822  3 H  dyy        
   125     -2.646822  4 H  dxx                4     -2.593407  1 B  s          

 Vector   56  Occ=0.000000D+00  E= 1.139041D+00  Symmetry=e'
              MO Center=  1.2D-01,  1.2D-01,  3.9D-17, r^2= 3.9D+00
   Bfn.  Coefficient  Atom+Function         Bfn.  Coefficient  Atom+Function  
  ----- ------------  ---------------      ----- ------------  ---------------
    59      6.081257  2 H  s                 51      4.180627  1 B  fxzz       
    54      4.180627  1 B  fyzz              25     -3.791371  1 B  dxy        
    80     -3.249315  2 H  dzz               12     -3.103710  1 B  px         
    13     -3.103710  1 B  py                84     -3.040628  3 H  s          
   109     -3.040628  4 H  s                101      2.104451  3 H  dxy        

 Vector   57  Occ=0.000000D+00  E= 1.139077D+00  Symmetry=e'
              MO Center= -1.1D-01, -1.1D-01,  2.5D-17, r^2= 3.9D+00
   Bfn.  Coefficient  Atom+Function         Bfn.  Coefficient  Atom+Function  
  ----- ------------  ---------------      ----- ------------  ---------------
    84      5.222567  3 H  s                109     -5.222567  4 H  s          
    51      4.147347  1 B  fxzz              54     -4.147347  1 B  fyzz       
    12     -3.100153  1 B  px                13      3.100153  1 B  py         
   105     -2.768777  3 H  dzz              130      2.768777  4 H  dzz        
    24      1.938856  1 B  dxx               27     -1.938856  1 B  dyy        

 Vector   58  Occ=0.000000D+00  E= 1.196825D+00  Symmetry=e"
              MO Center=  8.4D-02, -1.3D-01,  1.1D-16, r^2= 3.4D+00
   Bfn.  Coefficient  Atom+Function         Bfn.  Coefficient  Atom+Function  
  ----- ------------  ---------------      ----- ------------  ---------------
    26      6.733662  1 B  dxz               50     -6.401274  1 B  fxyz       
   102     -5.378333  3 H  dxz               79      3.293547  2 H  dyz        
    48      2.626902  1 B  fxxz              53     -2.626902  1 B  fyyz       
   129     -2.266034  4 H  dyz               77     -1.823231  2 H  dxz        
   104     -1.667997  3 H  dyz               40     -1.100043  1 B  fxyz       

 Vector   59  Occ=0.000000D+00  E= 1.196825D+00  Symmetry=e"
              MO Center= -8.4D-02,  1.3D-01, -1.2D-15, r^2= 3.4D+00
   Bfn.  Coefficient  Atom+Function         Bfn.  Coefficient  Atom+Function  
  ----- ------------  ---------------      ----- ------------  ---------------
    28      6.733662  1 B  dyz               50     -5.253804  1 B  fxyz       
   129     -5.033057  4 H  dyz               77      3.720536  2 H  dxz        
    48     -3.200637  1 B  fxxz              53      3.200637  1 B  fyyz       
    79     -2.513784  2 H  dyz              127     -1.839044  4 H  dxz        
   102     -1.241008  3 H  dxz              104      1.041317  3 H  dyz        

 Vector   60  Occ=0.000000D+00  E= 1.219794D+00  Symmetry=e'
              MO Center=  1.4D-01,  1.4D-01,  3.1D-16, r^2= 5.0D+00
   Bfn.  Coefficient  Atom+Function         Bfn.  Coefficient  Atom+Function  
  ----- ------------  ---------------      ----- ------------  ---------------
    84     10.134267  3 H  s                109    -10.134267  4 H  s          
    46      5.761902  1 B  fxxx              47     -5.761902  1 B  fxxy       
    49      5.761902  1 B  fxyy              52     -5.761902  1 B  fyyy       
    51      4.700901  1 B  fxzz              54     -4.700901  1 B  fyzz       
    66     -4.510604  2 H  px                67      4.510604  2 H  py         

 Vector   61  Occ=0.000000D+00  E= 1.219908D+00  Symmetry=e'
              MO Center= -1.4D-01, -1.4D-01,  4.1D-16, r^2= 5.0D+00
   Bfn.  Coefficient  Atom+Function         Bfn.  Coefficient  Atom+Function  
  ----- ------------  ---------------      ----- ------------  ---------------
    59     11.673628  2 H  s                 84     -5.836814  3 H  s          
   109     -5.836814  4 H  s                 46      5.779653  1 B  fxxx       
    47      5.779653  1 B  fxxy              49      5.779653  1 B  fxyy       
    52      5.779653  1 B  fyyy              91     -5.302564  3 H  px         
   117     -5.302564  4 H  py                51      4.673267  1 B  fxzz       

 Vector   62  Occ=0.000000D+00  E= 1.262314D+00  Symmetry=a2'
              MO Center= -2.3D-13, -3.4D-13,  5.8D-29, r^2= 5.0D+00
   Bfn.  Coefficient  Atom+Function         Bfn.  Coefficient  Atom+Function  
  ----- ------------  ---------------      ----- ------------  ---------------
    47     18.211977  1 B  fxxy              49    -18.211977  1 B  fxyy       
   101    -11.632116  3 H  dxy              126     11.632116  4 H  dxy        
    91      8.845273  3 H  px               117     -8.845273  4 H  py         
    75     -6.715805  2 H  dxx               78      6.715805  2 H  dyy        
    66     -6.475189  2 H  px                67      6.475189  2 H  py         

 Vector   63  Occ=0.000000D+00  E= 1.318352D+00  Symmetry=a2"
              MO Center= -1.1D-15, -2.0D-14,  6.5D-17, r^2= 3.9D+00
   Bfn.  Coefficient  Atom+Function         Bfn.  Coefficient  Atom+Function  
  ----- ------------  ---------------      ----- ------------  ---------------
    11      8.944440  1 B  pz                55     -4.422609  1 B  fzzz       
    48     -3.679813  1 B  fxxz              53     -3.679813  1 B  fyyz       
    14      2.746709  1 B  pz                65     -2.209479  2 H  pz         
    90     -2.209479  3 H  pz               115     -2.209479  4 H  pz         
    45     -2.016406  1 B  fzzz              38     -0.882368  1 B  fxxz       

 Vector   64  Occ=0.000000D+00  E= 1.343731D+00  Symmetry=e'
              MO Center= -2.8D-02, -2.8D-02,  7.2D-17, r^2= 4.0D+00
   Bfn.  Coefficient  Atom+Function         Bfn.  Coefficient  Atom+Function  
  ----- ------------  ---------------      ----- ------------  ---------------
    24      5.730536  1 B  dxx               27     -5.730536  1 B  dyy        
    66     -4.130360  2 H  px                67      4.130360  2 H  py         
    92     -2.986285  3 H  py               116      2.986285  4 H  px         
     9      2.519762  1 B  px                10     -2.519762  1 B  py         
    84      2.477105  3 H  s                109     -2.477105  4 H  s          

 Vector   65  Occ=0.000000D+00  E= 1.344086D+00  Symmetry=e'
              MO Center=  3.2D-02,  3.2D-02, -3.3D-16, r^2= 4.0D+00
   Bfn.  Coefficient  Atom+Function         Bfn.  Coefficient  Atom+Function  
  ----- ------------  ---------------      ----- ------------  ---------------
    25     11.164682  1 B  dxy               91      5.205173  3 H  px         
   117      5.205173  4 H  py                31      3.212251  1 B  dxy        
     9     -3.005055  1 B  px                10     -3.005055  1 B  py         
    59     -2.814781  2 H  s                 88      2.539388  3 H  px         
   114      2.539388  4 H  py                75      2.192249  2 H  dxx        

 Vector   66  Occ=0.000000D+00  E= 1.369639D+00  Symmetry=a1'
              MO Center= -1.4D-12,  4.1D-13,  1.3D-18, r^2= 4.0D+00
   Bfn.  Coefficient  Atom+Function         Bfn.  Coefficient  Atom+Function  
  ----- ------------  ---------------      ----- ------------  ---------------
    24     16.167655  1 B  dxx               27     16.167655  1 B  dyy        
    29     13.773638  1 B  dzz                5     -7.797273  1 B  s          
    57      6.457904  2 H  s                 82      6.457904  3 H  s          
   107      6.457904  4 H  s                  4     -6.268296  1 B  s          
   100     -5.577061  3 H  dxx              128     -5.577061  4 H  dyy        

 Vector   67  Occ=0.000000D+00  E= 1.387664D+00  Symmetry=e'
              MO Center= -2.0D-01, -2.0D-01,  3.0D-16, r^2= 3.8D+00
   Bfn.  Coefficient  Atom+Function         Bfn.  Coefficient  Atom+Function  
  ----- ------------  ---------------      ----- ------------  ---------------
    12      6.422972  1 B  px                13     -6.422972  1 B  py         
    24      5.519407  1 B  dxx               27     -5.519407  1 B  dyy        
    92      5.230970  3 H  py               116     -5.230970  4 H  px         
   100     -4.453457  3 H  dxx              128      4.453457  4 H  dyy        
    91     -3.943423  3 H  px               117      3.943423  4 H  py         

 Vector   68  Occ=0.000000D+00  E= 1.387679D+00  Symmetry=e'
              MO Center=  2.0D-01,  2.0D-01,  2.1D-16, r^2= 3.8D+00
   Bfn.  Coefficient  Atom+Function         Bfn.  Coefficient  Atom+Function  
  ----- ------------  ---------------      ----- ------------  ---------------
    25     10.844286  1 B  dxy               76     -6.677487  2 H  dxy        
    12     -6.426403  1 B  px                13     -6.426403  1 B  py         
   101     -5.158153  3 H  dxy              126     -5.158153  4 H  dxy        
    66      4.947358  2 H  px                67      4.947358  2 H  py         
    92      4.484309  3 H  py               116      4.484309  4 H  px         

 Vector   69  Occ=0.000000D+00  E= 1.528177D+00  Symmetry=e"
              MO Center= -6.6D-02, -9.9D-02, -1.8D-16, r^2= 3.5D+00
   Bfn.  Coefficient  Atom+Function         Bfn.  Coefficient  Atom+Function  
  ----- ------------  ---------------      ----- ------------  ---------------
    93      5.751958  3 H  pz               118     -5.136534  4 H  pz         
    90      4.506452  3 H  pz               115     -4.024289  4 H  pz         
    28      3.985675  1 B  dyz               26     -3.274890  1 B  dxz        
    48      2.786288  1 B  fxxz              53     -2.786288  1 B  fyyz       
    34      1.806283  1 B  dyz               79      1.521796  2 H  dyz        

 Vector   70  Occ=0.000000D+00  E= 1.528177D+00  Symmetry=e"
              MO Center=  6.6D-02,  9.9D-02,  4.4D-16, r^2= 3.5D+00
   Bfn.  Coefficient  Atom+Function         Bfn.  Coefficient  Atom+Function  
  ----- ------------  ---------------      ----- ------------  ---------------
    68      6.286474  2 H  pz                50     -5.572575  1 B  fxyz       
    65      4.925225  2 H  pz                26     -3.985675  1 B  dxz        
   118     -3.676210  4 H  pz                28     -3.274890  1 B  dyz        
   115     -2.880178  4 H  pz                40     -2.703681  1 B  fxyz       
    93     -2.610264  3 H  pz                90     -2.045047  3 H  pz         

 Vector   71  Occ=0.000000D+00  E= 1.838561D+00  Symmetry=a2'
              MO Center= -9.4D-14, -5.4D-13, -5.3D-19, r^2= 3.1D+00
   Bfn.  Coefficient  Atom+Function         Bfn.  Coefficient  Atom+Function  
  ----- ------------  ---------------      ----- ------------  ---------------
    88     -9.692561  3 H  px               114      9.692561  4 H  py         
   101     -9.485789  3 H  dxy              126      9.485789  4 H  dxy        
    47      9.334120  1 B  fxxy              49     -9.334120  1 B  fxyy       
    63      7.095447  2 H  px                64     -7.095447  2 H  py         
    75     -5.476623  2 H  dxx               78      5.476623  2 H  dyy        

 Vector   72  Occ=0.000000D+00  E= 1.839321D+00  Symmetry=a1'
              MO Center=  1.7D-13, -9.3D-14, -5.2D-18, r^2= 4.6D+00
   Bfn.  Coefficient  Atom+Function         Bfn.  Coefficient  Atom+Function  
  ----- ------------  ---------------      ----- ------------  ---------------
     5     29.206572  1 B  s                 24    -28.437480  1 B  dxx        
    27    -28.437480  1 B  dyy               29    -20.806302  1 B  dzz        
     3     13.141530  1 B  s                 89     -9.027493  3 H  py         
   113     -9.027493  4 H  px                58      8.077712  2 H  s          
    83      8.077712  3 H  s                108      8.077712  4 H  s          

 Vector   73  Occ=0.000000D+00  E= 1.928721D+00  Symmetry=e'
              MO Center=  4.8D-02,  4.8D-02, -5.7D-17, r^2= 3.1D+00
   Bfn.  Coefficient  Atom+Function         Bfn.  Coefficient  Atom+Function  
  ----- ------------  ---------------      ----- ------------  ---------------
     9      7.471404  1 B  px                10      7.471404  1 B  py         
    12      5.786580  1 B  px                13      5.786580  1 B  py         
    57      5.020519  2 H  s                 59     -4.982951  2 H  s          
    63     -4.561827  2 H  px                64     -4.561827  2 H  py         
    89     -4.310352  3 H  py               113     -4.310352  4 H  px         

 Vector   74  Occ=0.000000D+00  E= 1.928801D+00  Symmetry=e'
              MO Center= -4.8D-02, -4.8D-02,  2.0D-17, r^2= 3.1D+00
   Bfn.  Coefficient  Atom+Function         Bfn.  Coefficient  Atom+Function  
  ----- ------------  ---------------      ----- ------------  ---------------
     9      7.549449  1 B  px                10     -7.549449  1 B  py         
    12      5.782133  1 B  px                13     -5.782133  1 B  py         
    89      4.704030  3 H  py               113     -4.704030  4 H  px         
    84     -4.311086  3 H  s                109      4.311086  4 H  s          
    82      4.245135  3 H  s                107     -4.245135  4 H  s          

 Vector   75  Occ=0.000000D+00  E= 2.113463D+00  Symmetry=a2"
              MO Center= -9.4D-15, -1.3D-14,  4.2D-17, r^2= 2.1D+00
   Bfn.  Coefficient  Atom+Function         Bfn.  Coefficient  Atom+Function  
  ----- ------------  ---------------      ----- ------------  ---------------
    14      5.769467  1 B  pz                11      4.984302  1 B  pz         
    68     -3.994354  2 H  pz                93     -3.994354  3 H  pz         
   118     -3.994354  4 H  pz                48      3.084081  1 B  fxxz       
    53      3.084081  1 B  fyyz              55      1.457698  1 B  fzzz       
    45      1.388482  1 B  fzzz             104     -1.350181  3 H  dyz        

 Vector   76  Occ=0.000000D+00  E= 2.389561D+00  Symmetry=e'
              MO Center=  7.3D-03,  7.3D-03,  2.3D-16, r^2= 2.6D+00
   Bfn.  Coefficient  Atom+Function         Bfn.  Coefficient  Atom+Function  
  ----- ------------  ---------------      ----- ------------  ---------------
    84      6.278441  3 H  s                109     -6.278441  4 H  s          
    51      4.829828  1 B  fxzz              54     -4.829828  1 B  fyzz       
    46      4.615087  1 B  fxxx              47     -4.615087  1 B  fxxy       
    49      4.615087  1 B  fxyy              52     -4.615087  1 B  fyyy       
    41      3.693275  1 B  fxzz              44     -3.693275  1 B  fyzz       

 Vector   77  Occ=0.000000D+00  E= 2.390154D+00  Symmetry=e'
              MO Center= -7.7D-03, -7.7D-03,  5.8D-17, r^2= 2.6D+00
   Bfn.  Coefficient  Atom+Function         Bfn.  Coefficient  Atom+Function  
  ----- ------------  ---------------      ----- ------------  ---------------
    59      7.242493  2 H  s                 51      4.825745  1 B  fxzz       
    54      4.825745  1 B  fyzz              46      4.595712  1 B  fxxx       
    47      4.595712  1 B  fxxy              49      4.595712  1 B  fxyy       
    52      4.595712  1 B  fyyy              80     -4.011896  2 H  dzz        
    41      3.691840  1 B  fxzz              44      3.691840  1 B  fyzz       

 Vector   78  Occ=0.000000D+00  E= 2.417046D+00  Symmetry=a1'
              MO Center= -6.9D-13, -2.6D-13, -1.7D-17, r^2= 2.3D+00
   Bfn.  Coefficient  Atom+Function         Bfn.  Coefficient  Atom+Function  
  ----- ------------  ---------------      ----- ------------  ---------------
    24     13.770952  1 B  dxx               27     13.770952  1 B  dyy        
     3    -12.390379  1 B  s                 29      9.570854  1 B  dzz        
    57      6.644713  2 H  s                 82      6.644713  3 H  s          
   107      6.644713  4 H  s                100     -6.272454  3 H  dxx        
   128     -6.272454  4 H  dyy               76      5.572294  2 H  dxy        

 Vector   79  Occ=0.000000D+00  E= 2.479631D+00  Symmetry=e"
              MO Center=  5.0D-02, -1.0D-01,  1.1D-17, r^2= 1.9D+00
   Bfn.  Coefficient  Atom+Function         Bfn.  Coefficient  Atom+Function  
  ----- ------------  ---------------      ----- ------------  ---------------
    40      6.471687  1 B  fxyz              50      5.266284  1 B  fxyz       
   102      4.733085  3 H  dxz               26     -3.698993  1 B  dxz        
    79     -3.024345  2 H  dyz              129      2.402903  4 H  dyz        
    38     -2.297647  1 B  fxxz              43      2.297647  1 B  fyyz       
    48     -1.869692  1 B  fxxz              53      1.869692  1 B  fyyz       

 Vector   80  Occ=0.000000D+00  E= 2.479631D+00  Symmetry=e"
              MO Center= -5.0D-02,  1.0D-01,  3.0D-16, r^2= 1.9D+00
   Bfn.  Coefficient  Atom+Function         Bfn.  Coefficient  Atom+Function  
  ----- ------------  ---------------      ----- ------------  ---------------
    40      4.595294  1 B  fxyz             129      4.174326  4 H  dyz        
    50      3.739384  1 B  fxyz              28     -3.698993  1 B  dyz        
    77     -3.566786  2 H  dxz               38      3.235844  1 B  fxxz       
    43     -3.235844  1 B  fyyz              48      2.633142  1 B  fxxz       
    53     -2.633142  1 B  fyyz              79      2.158421  2 H  dyz        

 Vector   81  Occ=0.000000D+00  E= 2.540263D+00  Symmetry=a1'
              MO Center=  2.3D-13,  6.5D-13,  5.6D-17, r^2= 2.2D+00
   Bfn.  Coefficient  Atom+Function         Bfn.  Coefficient  Atom+Function  
  ----- ------------  ---------------      ----- ------------  ---------------
    24     18.346724  1 B  dxx               27     18.346724  1 B  dyy        
    29     15.931944  1 B  dzz                3     -6.991158  1 B  s          
    57      6.081324  2 H  s                 82      6.081324  3 H  s          
   107      6.081324  4 H  s                  4     -6.010862  1 B  s          
   100     -5.916939  3 H  dxx              128     -5.916939  4 H  dyy        

 Vector   82  Occ=0.000000D+00  E= 2.583502D+00  Symmetry=a2"
              MO Center=  1.3D-14,  9.1D-15,  1.1D-17, r^2= 2.2D+00
   Bfn.  Coefficient  Atom+Function         Bfn.  Coefficient  Atom+Function  
  ----- ------------  ---------------      ----- ------------  ---------------
    11     12.018837  1 B  pz                48     -5.034337  1 B  fxxz       
    53     -5.034337  1 B  fyyz              45     -4.210451  1 B  fzzz       
    55     -3.830068  1 B  fzzz              65     -2.814944  2 H  pz         
    90     -2.814944  3 H  pz               115     -2.814944  4 H  pz         
    68      1.390178  2 H  pz                93      1.390178  3 H  pz         

 Vector   83  Occ=0.000000D+00  E= 2.618041D+00  Symmetry=e'
              MO Center= -1.1D-01, -1.1D-01, -1.3D-16, r^2= 2.3D+00
   Bfn.  Coefficient  Atom+Function         Bfn.  Coefficient  Atom+Function  
  ----- ------------  ---------------      ----- ------------  ---------------
    89      4.507018  3 H  py               113     -4.507018  4 H  px         
    92      3.272538  3 H  py               116     -3.272538  4 H  px         
    36      2.723978  1 B  fxxx              37     -2.723978  1 B  fxxy       
    39      2.723978  1 B  fxyy              42     -2.723978  1 B  fyyy       
   103      2.209995  3 H  dyy              125     -2.209995  4 H  dxx        

 Vector   84  Occ=0.000000D+00  E= 2.618223D+00  Symmetry=e'
              MO Center=  1.1D-01,  1.1D-01,  1.7D-17, r^2= 2.3D+00
   Bfn.  Coefficient  Atom+Function         Bfn.  Coefficient  Atom+Function  
  ----- ------------  ---------------      ----- ------------  ---------------
    25      3.918216  1 B  dxy               63     -3.796063  2 H  px         
    64     -3.796063  2 H  py                19      2.898451  1 B  dxy        
    76      2.875957  2 H  dxy               36      2.729007  1 B  fxxx       
    37      2.729007  1 B  fxxy              39      2.729007  1 B  fxyy       
    42      2.729007  1 B  fyyy              66     -2.655401  2 H  px         

 Vector   85  Occ=0.000000D+00  E= 2.655602D+00  Symmetry=e'
              MO Center= -6.8D-02, -6.8D-02, -2.7D-16, r^2= 2.3D+00
   Bfn.  Coefficient  Atom+Function         Bfn.  Coefficient  Atom+Function  
  ----- ------------  ---------------      ----- ------------  ---------------
    57      6.421910  2 H  s                  9      6.222294  1 B  px         
    10      6.222294  1 B  py                25     -5.725290  1 B  dxy        
    19     -4.925236  1 B  dxy               88     -4.633251  3 H  px         
   114     -4.633251  4 H  py                91     -4.176430  3 H  px         
   117     -4.176430  4 H  py                89     -4.047109  3 H  py         

 Vector   86  Occ=0.000000D+00  E= 2.655978D+00  Symmetry=e'
              MO Center=  6.8D-02,  6.8D-02, -9.1D-18, r^2= 2.3D+00
   Bfn.  Coefficient  Atom+Function         Bfn.  Coefficient  Atom+Function  
  ----- ------------  ---------------      ----- ------------  ---------------
     9      5.969864  1 B  px                10     -5.969864  1 B  py         
    82      5.882858  3 H  s                107     -5.882858  4 H  s          
    63     -4.498443  2 H  px                64      4.498443  2 H  py         
    88     -4.289718  3 H  px               114      4.289718  4 H  py         
    89      3.719472  3 H  py               113     -3.719472  4 H  px         

 Vector   87  Occ=0.000000D+00  E= 2.937283D+00  Symmetry=e"
              MO Center= -3.1D-02,  1.1D-01, -1.7D-16, r^2= 2.0D+00
   Bfn.  Coefficient  Atom+Function         Bfn.  Coefficient  Atom+Function  
  ----- ------------  ---------------      ----- ------------  ---------------
   115      5.902649  4 H  pz                65     -5.813063  2 H  pz         
    40      5.734045  1 B  fxyz              20      5.318443  1 B  dxz        
   118      3.693416  4 H  pz                68     -3.637360  2 H  pz         
    26      3.136776  1 B  dxz              127      2.586341  4 H  dxz        
    50      2.542323  1 B  fxyz              77      2.378902  2 H  dxz        

 Vector   88  Occ=0.000000D+00  E= 2.937283D+00  Symmetry=e"
              MO Center=  3.1D-02, -1.1D-01,  5.7D-17, r^2= 2.0D+00
   Bfn.  Coefficient  Atom+Function         Bfn.  Coefficient  Atom+Function  
  ----- ------------  ---------------      ----- ------------  ---------------
    90      6.764070  3 H  pz                22      5.318443  1 B  dyz        
    93      4.232425  3 H  pz                65     -3.459619  2 H  pz         
    40      3.412592  1 B  fxyz             115     -3.304451  4 H  pz         
    28      3.136776  1 B  dyz               38      2.867022  1 B  fxxz       
    43     -2.867022  1 B  fyyz             104      2.694824  3 H  dyz        

 Vector   89  Occ=0.000000D+00  E= 3.004172D+00  Symmetry=a1'
              MO Center=  3.8D-13,  4.6D-13, -1.1D-16, r^2= 2.3D+00
   Bfn.  Coefficient  Atom+Function         Bfn.  Coefficient  Atom+Function  
  ----- ------------  ---------------      ----- ------------  ---------------
     3     31.052738  1 B  s                 24    -23.824838  1 B  dxx        
    27    -23.824838  1 B  dyy               29    -17.276600  1 B  dzz        
    89    -12.804863  3 H  py               113    -12.804863  4 H  px         
    63      9.373810  2 H  px                64      9.373810  2 H  py         
    57     -9.153457  2 H  s                 82     -9.153457  3 H  s          

 Vector   90  Occ=0.000000D+00  E= 3.317843D+00  Symmetry=a2'
              MO Center= -1.3D-13, -4.9D-14, -5.1D-21, r^2= 2.0D+00
   Bfn.  Coefficient  Atom+Function         Bfn.  Coefficient  Atom+Function  
  ----- ------------  ---------------      ----- ------------  ---------------
    88     12.205110  3 H  px               114    -12.205110  4 H  py         
    37     10.376870  1 B  fxxy              39    -10.376870  1 B  fxyy       
    63     -8.934761  2 H  px                64      8.934761  2 H  py         
   101      7.013901  3 H  dxy              126     -7.013901  4 H  dxy        
[...]
 Vector  105  Occ=0.000000D+00  E= 5.038886D+00  Symmetry=a1'
              MO Center= -1.1D-13, -5.2D-14, -2.1D-17, r^2= 1.3D+00
   Bfn.  Coefficient  Atom+Function         Bfn.  Coefficient  Atom+Function  
  ----- ------------  ---------------      ----- ------------  ---------------
    24     10.720241  1 B  dxx               27     10.720241  1 B  dyy        
    29      7.583885  1 B  dzz                3     -6.507525  1 B  s          
    57      5.407168  2 H  s                 82      5.407168  3 H  s          
   107      5.407168  4 H  s                100     -4.695341  3 H  dxx        
   128     -4.695341  4 H  dyy               75     -3.447688  2 H  dxx        

 Vector  106  Occ=0.000000D+00  E= 5.117263D+00  Symmetry=e'
              MO Center=  8.9D-02,  8.9D-02,  4.8D-16, r^2= 1.5D+00
   Bfn.  Coefficient  Atom+Function         Bfn.  Coefficient  Atom+Function  
  ----- ------------  ---------------      ----- ------------  ---------------
    59      4.096853  2 H  s                 36      3.630988  1 B  fxxx       
    37      3.630988  1 B  fxxy              39      3.630988  1 B  fxyy       
    42      3.630988  1 B  fyyy              57      3.498724  2 H  s          
    88     -3.142079  3 H  px               114     -3.142079  4 H  py         
    89     -3.019336  3 H  py               113     -3.019336  4 H  px         

 Vector  107  Occ=0.000000D+00  E= 5.117397D+00  Symmetry=e'
              MO Center= -8.9D-02, -8.9D-02,  1.7D-16, r^2= 1.5D+00
   Bfn.  Coefficient  Atom+Function         Bfn.  Coefficient  Atom+Function  
  ----- ------------  ---------------      ----- ------------  ---------------
    36      3.625983  1 B  fxxx              37     -3.625983  1 B  fxxy       
    39      3.625983  1 B  fxyy              42     -3.625983  1 B  fyyy       
    84      3.558133  3 H  s                109     -3.558133  4 H  s          
    63     -3.118758  2 H  px                64      3.118758  2 H  py         
    82      3.062295  3 H  s                 88     -3.072520  3 H  px         

 Vector  108  Occ=0.000000D+00  E= 5.228722D+00  Symmetry=a1'
              MO Center=  1.9D-15,  1.9D-13, -2.0D-17, r^2= 1.3D+00
   Bfn.  Coefficient  Atom+Function         Bfn.  Coefficient  Atom+Function  
  ----- ------------  ---------------      ----- ------------  ---------------
     3     15.131829  1 B  s                 24    -14.063518  1 B  dxx        
    27    -14.063518  1 B  dyy               29    -10.531112  1 B  dzz        
    57     -8.485622  2 H  s                 82     -8.485622  3 H  s          
   107     -8.485622  4 H  s                 89     -6.720634  3 H  py         
   113     -6.720634  4 H  px                63      4.919845  2 H  px         

 Vector  109  Occ=0.000000D+00  E= 5.270693D+00  Symmetry=a2'
              MO Center=  7.1D-14,  7.0D-14, -7.4D-21, r^2= 1.3D+00
   Bfn.  Coefficient  Atom+Function         Bfn.  Coefficient  Atom+Function  
  ----- ------------  ---------------      ----- ------------  ---------------
    37      7.865671  1 B  fxxy              39     -7.865671  1 B  fxyy       
    88      4.658054  3 H  px               114     -4.658054  4 H  py         
    47     -3.637685  1 B  fxxy              49      3.637685  1 B  fxyy       
    63     -3.409932  2 H  px                64      3.409932  2 H  py         
   101      2.965576  3 H  dxy              126     -2.965576  4 H  dxy        

 Vector  110  Occ=0.000000D+00  E= 5.617802D+00  Symmetry=e'
              MO Center=  1.3D-01,  1.3D-01, -5.3D-17, r^2= 1.2D+00
   Bfn.  Coefficient  Atom+Function         Bfn.  Coefficient  Atom+Function  
  ----- ------------  ---------------      ----- ------------  ---------------
    19      3.515898  1 B  dxy               57     -3.488906  2 H  s          
    75      2.753752  2 H  dxx               78      2.753752  2 H  dyy        
    80      2.685650  2 H  dzz               36      2.525238  1 B  fxxx       
    37      2.525238  1 B  fxxy              39      2.525238  1 B  fxyy       
    42      2.525238  1 B  fyyy              12      2.354468  1 B  px         

 Vector  111  Occ=0.000000D+00  E= 5.617818D+00  Symmetry=e'
              MO Center= -1.3D-01, -1.3D-01,  3.5D-18, r^2= 1.2D+00
   Bfn.  Coefficient  Atom+Function         Bfn.  Coefficient  Atom+Function  
  ----- ------------  ---------------      ----- ------------  ---------------
    82      2.998347  3 H  s                107     -2.998347  4 H  s          
   103     -2.853343  3 H  dyy              125      2.853343  4 H  dxx        
    36     -2.526354  1 B  fxxx              37      2.526354  1 B  fxxy       
    39     -2.526354  1 B  fxyy              42      2.526354  1 B  fyyy       
    92     -2.392846  3 H  py               116      2.392846  4 H  px         

 Vector  112  Occ=0.000000D+00  E= 5.817978D+00  Symmetry=e"
              MO Center= -1.3D-01, -1.7D-01,  8.3D-17, r^2= 1.1D+00
   Bfn.  Coefficient  Atom+Function         Bfn.  Coefficient  Atom+Function  
  ----- ------------  ---------------      ----- ------------  ---------------
    22      6.097888  1 B  dyz               20     -5.326787  1 B  dxz        
    90      5.160381  3 H  pz               115     -4.773288  4 H  pz         
    38      2.791456  1 B  fxxz              43     -2.791456  1 B  fyyz       
    98      2.590812  3 H  dyz              121     -2.413904  4 H  dxz        
    93      2.149122  3 H  pz               118     -1.987911  4 H  pz         

 Vector  113  Occ=0.000000D+00  E= 5.817978D+00  Symmetry=e"
              MO Center=  1.3D-01,  1.7D-01,  2.7D-17, r^2= 1.1D+00
   Bfn.  Coefficient  Atom+Function         Bfn.  Coefficient  Atom+Function  
  ----- ------------  ---------------      ----- ------------  ---------------
    20      6.097888  1 B  dxz               65     -5.735206  2 H  pz         
    40      5.582912  1 B  fxyz              22      5.326787  1 B  dyz        
   115      3.202836  4 H  pz                90      2.532370  3 H  pz         
    68     -2.388517  2 H  pz                50      2.211761  1 B  fxyz       
    73      2.087553  2 H  dyz               71      2.044691  2 H  dxz        

 Vector  114  Occ=0.000000D+00  E= 5.847698D+00  Symmetry=a1'
              MO Center= -6.6D-13, -7.7D-13,  3.9D-18, r^2= 1.3D+00
   Bfn.  Coefficient  Atom+Function         Bfn.  Coefficient  Atom+Function  
  ----- ------------  ---------------      ----- ------------  ---------------
     3     29.916129  1 B  s                 24    -19.148603  1 B  dxx        
    27    -19.148603  1 B  dyy               29    -12.224598  1 B  dzz        
    89    -11.273354  3 H  py               113    -11.273354  4 H  px         
    63      8.252668  2 H  px                64      8.252668  2 H  py         
    57     -6.700779  2 H  s                 82     -6.700779  3 H  s          

 Vector  115  Occ=0.000000D+00  E= 6.141199D+00  Symmetry=a2'
              MO Center= -3.3D-14, -3.5D-14, -1.6D-21, r^2= 1.2D+00
   Bfn.  Coefficient  Atom+Function         Bfn.  Coefficient  Atom+Function  
  ----- ------------  ---------------      ----- ------------  ---------------
    88      9.455661  3 H  px               114     -9.455661  4 H  py         
    37      9.131931  1 B  fxxy              39     -9.131931  1 B  fxyy       
    63     -6.922024  2 H  px                64      6.922024  2 H  py         
   101      4.399186  3 H  dxy              126     -4.399186  4 H  dxy        
    36      3.043977  1 B  fxxx              42     -3.043977  1 B  fyyy       

 Vector  116  Occ=0.000000D+00  E= 6.254644D+00  Symmetry=a1'
              MO Center= -1.6D-14, -7.2D-14, -4.7D-19, r^2= 1.0D+00
   Bfn.  Coefficient  Atom+Function         Bfn.  Coefficient  Atom+Function  
  ----- ------------  ---------------      ----- ------------  ---------------
     3      8.680517  1 B  s                 18     -6.543143  1 B  dxx        
    21     -6.543143  1 B  dyy                2      6.225473  1 B  s          
    23     -5.140947  1 B  dzz               29     -5.145559  1 B  dzz        
    24     -5.087545  1 B  dxx               27     -5.087545  1 B  dyy        
    37     -2.623129  1 B  fxxy              39     -2.623129  1 B  fxyy       

 Vector  117  Occ=0.000000D+00  E= 6.666393D+00  Symmetry=e'
              MO Center=  1.0D-01,  1.0D-01,  7.9D-18, r^2= 1.1D+00
   Bfn.  Coefficient  Atom+Function         Bfn.  Coefficient  Atom+Function  
  ----- ------------  ---------------      ----- ------------  ---------------
     9     11.030596  1 B  px                10    -11.030596  1 B  py         
    82      9.570873  3 H  s                107     -9.570873  4 H  s          
    89      6.505574  3 H  py               113     -6.505574  4 H  px         
    41     -6.393231  1 B  fxzz              44      6.393231  1 B  fyzz       
    36     -4.573688  1 B  fxxx              37      4.573688  1 B  fxxy       

 Vector  118  Occ=0.000000D+00  E= 6.666461D+00  Symmetry=e'
              MO Center= -1.0D-01, -1.0D-01,  4.0D-17, r^2= 1.1D+00
   Bfn.  Coefficient  Atom+Function         Bfn.  Coefficient  Atom+Function  
  ----- ------------  ---------------      ----- ------------  ---------------
     9     11.068215  1 B  px                10     11.068215  1 B  py         
    57     11.007217  2 H  s                 19     -7.968065  1 B  dxy        
    41     -6.396905  1 B  fxzz              44     -6.396905  1 B  fyzz       
    63     -5.920070  2 H  px                64     -5.920070  2 H  py         
    82     -5.503609  3 H  s                107     -5.503609  4 H  s          

 Vector  119  Occ=0.000000D+00  E= 6.724702D+00  Symmetry=a2"
              MO Center= -4.4D-15,  2.4D-15,  5.5D-18, r^2= 7.4D-01
   Bfn.  Coefficient  Atom+Function         Bfn.  Coefficient  Atom+Function  
  ----- ------------  ---------------      ----- ------------  ---------------
    38      6.283003  1 B  fxxz              43      6.283003  1 B  fyyz       
     8      4.977568  1 B  pz                45      3.967257  1 B  fzzz       
    65     -3.534289  2 H  pz                90     -3.534289  3 H  pz         
   115     -3.534289  4 H  pz                48      1.579044  1 B  fxxz       
    53      1.579044  1 B  fyyz              55      1.438698  1 B  fzzz       

 Vector  120  Occ=0.000000D+00  E= 9.262191D+00  Symmetry=e'
              MO Center= -8.7D-02, -8.7D-02,  3.0D-18, r^2= 6.4D-01
   Bfn.  Coefficient  Atom+Function         Bfn.  Coefficient  Atom+Function  
  ----- ------------  ---------------      ----- ------------  ---------------
    89      6.196176  3 H  py               113     -6.196176  4 H  px         
    82      5.086991  3 H  s                107     -5.086991  4 H  s          
     6     -4.943737  1 B  px                 7      4.943737  1 B  py         
     9      4.714850  1 B  px                10     -4.714850  1 B  py         
    41     -2.763349  1 B  fxzz              44      2.763349  1 B  fyzz       

 Vector  121  Occ=0.000000D+00  E= 9.263107D+00  Symmetry=e'
              MO Center=  8.7D-02,  8.7D-02,  2.7D-18, r^2= 6.4D-01
   Bfn.  Coefficient  Atom+Function         Bfn.  Coefficient  Atom+Function  
  ----- ------------  ---------------      ----- ------------  ---------------
    57      6.140836  2 H  s                 63     -5.000944  2 H  px         
    64     -5.000944  2 H  py                 6     -4.943319  1 B  px         
     7     -4.943319  1 B  py                19      4.951966  1 B  dxy        
     9      4.521771  1 B  px                10      4.521771  1 B  py         
    25      4.305142  1 B  dxy               82     -3.070418  3 H  s          

 Vector  122  Occ=0.000000D+00  E= 1.298680D+01  Symmetry=e'
              MO Center= -1.8D-01, -1.8D-01,  2.2D-18, r^2= 1.7D+00
   Bfn.  Coefficient  Atom+Function         Bfn.  Coefficient  Atom+Function  
  ----- ------------  ---------------      ----- ------------  ---------------
    82     10.432788  3 H  s                107    -10.432788  4 H  s          
   100     -7.622411  3 H  dxx              128      7.622411  4 H  dyy        
     9      6.973926  1 B  px                10     -6.973926  1 B  py         
   105     -6.657966  3 H  dzz              130      6.657966  4 H  dzz        
    89      6.348842  3 H  py               113     -6.348842  4 H  px         

 Vector  123  Occ=0.000000D+00  E= 1.298838D+01  Symmetry=e'
              MO Center=  1.8D-01,  1.8D-01,  1.1D-18, r^2= 1.7D+00
   Bfn.  Coefficient  Atom+Function         Bfn.  Coefficient  Atom+Function  
  ----- ------------  ---------------      ----- ------------  ---------------
    57     12.202278  2 H  s                 19      9.298455  1 B  dxy        
    80     -7.660801  2 H  dzz               75     -7.205101  2 H  dxx        
    78     -7.205101  2 H  dyy               56     -7.146655  2 H  s          
     9      6.865859  1 B  px                10      6.865859  1 B  py         
    59      6.521355  2 H  s                 82     -6.101139  3 H  s          

 Vector  124  Occ=0.000000D+00  E= 1.499081D+01  Symmetry=a1'
              MO Center=  1.3D-13, -2.7D-13,  4.2D-19, r^2= 1.2D+00
   Bfn.  Coefficient  Atom+Function         Bfn.  Coefficient  Atom+Function  
  ----- ------------  ---------------      ----- ------------  ---------------
     3     11.357307  1 B  s                  5      8.317902  1 B  s          
    56     -5.656753  2 H  s                 81     -5.656753  3 H  s          
   106     -5.656753  4 H  s                 37      4.807586  1 B  fxxy       
    39      4.807586  1 B  fxyy              18      3.722419  1 B  dxx        
    21      3.722419  1 B  dyy               57      3.156997  2 H  s          

 Vector  125  Occ=0.000000D+00  E= 2.297424D+01  Symmetry=a1'
              MO Center=  3.8D-14,  7.3D-14,  2.6D-20, r^2= 3.6D-01
   Bfn.  Coefficient  Atom+Function         Bfn.  Coefficient  Atom+Function  
  ----- ------------  ---------------      ----- ------------  ---------------
     2     34.944103  1 B  s                  1     16.476998  1 B  s          
    24     13.767044  1 B  dxx               27     13.767044  1 B  dyy        
     3    -10.666501  1 B  s                 29      6.790629  1 B  dzz        
    57     -6.173535  2 H  s                 82     -6.173535  3 H  s          
   107     -6.173535  4 H  s                100     -5.524643  3 H  dxx        


------------------------------------------------------------
EAF file 0: "./bh3_aug-cc-pvtz.aoints.0" size=4194304 bytes
------------------------------------------------------------
               write      read    awrite     aread      wait
               -----      ----    ------     -----      ----
     calls:        8         5         0        35        35
   data(b): 4.19e+06  2.62e+06  0.00e+00  1.84e+07
   time(s): 0.00e+00  0.00e+00  0.00e+00  0.00e+00  0.00e+00
rate(mb/s): 0.00e+00  0.00e+00
------------------------------------------------------------


 center of mass
 --------------
 x =  -0.00000000 y =  -0.00000000 z =   0.00000000

 moments of inertia (a.u.)
 ------------------
           2.108913130136           0.000000000000           0.000000000000
           0.000000000000           2.108913130136           0.000000000000
           0.000000000000           0.000000000000           4.217826260273

     Multipole analysis of the density
     ---------------------------------

     L   x y z        total         alpha         beta         nuclear
     -   - - -        -----         -----         ----         -------
     0   0 0 0     -0.000000     -4.000000     -4.000000      8.000000

     1   1 0 0     -0.000000     -0.000000     -0.000000     -0.000000
     1   0 1 0     -0.000000     -0.000000     -0.000000     -0.000000
     1   0 0 1     -0.000000     -0.000000     -0.000000      0.000000

     2   2 0 0     -5.383036     -3.737788     -3.737788      2.092539
     2   1 1 0      0.000000      0.000000      0.000000     -0.000000
     2   1 0 1     -0.000000     -0.000000     -0.000000      0.000000
     2   0 2 0     -5.383036     -3.737788     -3.737788      2.092539
     2   0 1 1     -0.000000     -0.000000     -0.000000      0.000000
     2   0 0 2     -3.826085     -1.913043     -1.913043      0.000000


 Parallel integral file used     131 records with       0 large values


 Task  times  cpu:        3.3s     wall:        3.3s
 Summary of allocated global arrays
-----------------------------------
  No active global arrays



                         GA Statistics for process    0
                         ------------------------------

       create   destroy   get      put      acc     scatter   gather  read&inc
calls:  199      199     3.15e+04 1.08e+04 5925        0        0      752     
number of processes/call 0.00e+00 0.00e+00 0.00e+00 0.00e+00 0.00e+00
bytes total:             1.32e+08 3.03e+07 6.61e+07 0.00e+00 0.00e+00 6.02e+03
bytes remote:            0.00e+00 0.00e+00 0.00e+00 0.00e+00 0.00e+00 0.00e+00
Max memory consumed for GA by this process: 5272800 bytes
MA_summarize_allocated_blocks: starting scan ...
MA_summarize_allocated_blocks: scan completed: 0 heap blocks, 0 stack blocks
MA usage statistics:

	allocation statistics:
					      heap	     stack
					      ----	     -----
	current number of blocks	         0	         0
	maximum number of blocks	        22	        57
	current total bytes		         0	         0
	maximum total bytes		  66089704	  28915432
	maximum total K-bytes		     66090	     28916
	maximum total M-bytes		        67	        29


                                NWChem Input Module
                                -------------------





                                     CITATION
                                     --------
                Please cite the following reference when publishing
                           results obtained with NWChem:

                 M. Valiev, E.J. Bylaska, N. Govind, K. Kowalski,
              T.P. Straatsma, H.J.J. van Dam, D. Wang, J. Nieplocha,
                        E. Apra, T.L. Windus, W.A. de Jong
                 "NWChem: a comprehensive and scalable open-source
                  solution for large scale molecular simulations"
                      Comput. Phys. Commun. 181, 1477 (2010)
                           doi:10.1016/j.cpc.2010.04.018

                                      AUTHORS
                                      -------
     E. Apra, E. J. Bylaska, N. Govind, K. Kowalski, M. Valiev, W. A. de Jong,
      T. P. Straatsma, H. J. J. van Dam, D. Wang, T. L. Windus, N. P. Bauman,
       A. Panyala, J. Hammond, J. Autschbach, K. Bhaskaran-Nair, J. Brabec,
    K. Lopata, S. A. Fischer, S. Krishnamoorthy, M. Jacquelin, W. Ma, M. Klemm,
       O. Villa, Y. Chen, V. Anisimov, F. Aquino, S. Hirata, M. T. Hackler,
           Eric Hermes, L. Jensen, J. E. Moore, J. C. Becca, V. Konjkov,
            D. Mejia-Rodriguez, T. Risthaus, M. Malagoli, A. Marenich,
   A. Otero-de-la-Roza, J. Mullin, P. Nichols, R. Peverati, J. Pittner, Y. Zhao,
        P.-D. Fan, A. Fonari, M. J. Williamson, R. J. Harrison, J. R. Rehr,
      M. Dupuis, D. Silverstein, D. M. A. Smith, J. Nieplocha, V. Tipparaju,
      M. Krishnan, B. E. Van Kuiken, A. Vazquez-Mayagoitia, M. Swart, Q. Wu,
   T. Van Voorhis, A. A. Auer, M. Nooijen, L. D. Crosby, E. Brown, G. Cisneros,
     G. I. Fann, H. Fruchtl, J. Garza, K. Hirao, R. A. Kendall, J. A. Nichols,
       K. Tsemekhman, K. Wolinski, J. Anchell, D. E. Bernholdt, P. Borowski,
       T. Clark, D. Clerc, H. Dachsel, M. J. O. Deegan, K. Dyall, D. Elwood,
      E. Glendening, M. Gutowski, A. C. Hess, J. Jaffe, B. G. Johnson, J. Ju,
        R. Kobayashi, R. Kutteh, Z. Lin, R. Littlefield, X. Long, B. Meng,
      T. Nakajima, S. Niu, L. Pollack, M. Rosing, K. Glaesemann, G. Sandrone,
      M. Stave, H. Taylor, G. Thomas, J. H. van Lenthe, A. T. Wong, Z. Zhang.

 Total times  cpu:        3.4s     wall:        3.4s
