 argument  1 = nacl_cc-pvtz.inp
                                         
                                         


             Northwest Computational Chemistry Package (NWChem) 7.0.0
             --------------------------------------------------------


                    Environmental Molecular Sciences Laboratory
                       Pacific Northwest National Laboratory
                                Richland, WA 99352

                              Copyright (c) 1994-2019
                       Pacific Northwest National Laboratory
                            Battelle Memorial Institute

             NWChem is an open-source computational chemistry package
                        distributed under the terms of the
                      Educational Community License (ECL) 2.0
             A copy of the license is included with this distribution
                              in the LICENSE.TXT file

                                  ACKNOWLEDGMENT
                                  --------------

            This software and its documentation were developed at the
            EMSL at Pacific Northwest National Laboratory, a multiprogram
            national laboratory, operated for the U.S. Department of Energy
            by Battelle under Contract Number DE-AC05-76RL01830. Support
            for this work was provided by the Department of Energy Office
            of Biological and Environmental Research, Office of Basic
            Energy Sciences, and the Office of Advanced Scientific Computing.


           Job information
           ---------------

    hostname        = Amanda-Dewyers-MacBook-Air.local
    program         = nwchem
    date            = Fri Sep 11 17:06:54 2020

    compiled        = Fri_Jul_03_06:05:09_2020
    source          = /private/tmp/nwchem-20200703-71421-tc8c0i/nwchem-7.0.0
    nwchem branch   = 7.0.0
    nwchem revision = 2c9a1c7c
    ga revision     = 5.7.1
    use scalapack   = T
    input           = nacl_cc-pvtz.inp
    prefix          = nacl_cc-pvtz.
    data base       = ./nacl_cc-pvtz.db
    status          = startup
    nproc           =        1
    time left       =     -1s



           Memory information
           ------------------

    heap     =   13107196 doubles =    100.0 Mbytes
    stack    =   13107201 doubles =    100.0 Mbytes
    global   =   26214400 doubles =    200.0 Mbytes (distinct from heap & stack)
    total    =   52428797 doubles =    400.0 Mbytes
    verify   = yes
    hardfail = no 


           Directory information
           ---------------------

  0 permanent = .
  0 scratch   = .




                                NWChem Input Module
                                -------------------


                                     test case
                                     ---------
 ORDER OF PRIMARY AXIS IS BEING SET TO 4
 C4V symmetry detected

          ------
          auto-z
          ------
  no constraints, skipping    0.0000000000000000     
  no constraints, skipping    0.0000000000000000     


                             Geometry "geometry" -> ""
                             -------------------------

 Output coordinates in a.u. (scale by  1.000000000 to convert to a.u.)

  No.       Tag          Charge          X              Y              Z
 ---- ---------------- ---------- -------------- -------------- --------------
    1 Na                  11.0000     0.00000000     0.00000000    -1.45555396
    2 Cl                  17.0000     0.00000000     0.00000000     0.94182903

      Atomic Mass 
      ----------- 

      Na                22.989800
      Cl                34.968850


 Effective nuclear repulsion energy (a.u.)      78.0017214429

            Nuclear Dipole moment (a.u.) 
            ----------------------------
        X                 Y               Z
 ---------------- ---------------- ----------------
     0.0000000000     0.0000000000     0.0000000000

      Symmetry information
      --------------------

 Group name             C4v       
 Group number             18
 Group order               8
 No. of unique centers     2

      Symmetry unique atoms

     1    2



                                Z-matrix (autoz)
                                -------- 

 Units are Angstrom for bonds and degrees for angles

      Type          Name      I     J     K     L     M      Value
      ----------- --------  ----- ----- ----- ----- ----- ----------
    1 Stretch                  1     2                       1.26864


            XYZ format geometry
            -------------------
     2
 geometry
 Na                    0.00000000     0.00000000    -0.77024604
 Cl                    0.00000000     0.00000000     0.49839450

 ==============================================================================
                                internuclear distances
 ------------------------------------------------------------------------------
       center one      |      center two      | atomic units |       a.u.
 ------------------------------------------------------------------------------
    2 Cl               |   1 Na               |     2.39738  |     2.39738
 ------------------------------------------------------------------------------
                         number of included internuclear distances:          1
 ==============================================================================



  library name resolved from: .nwchemrc
  library file name is: </usr/local/Cellar/nwchem/7.0.0_2/share/nwchem/libraries/>
  


 Summary of "ao basis" -> "" (cartesian)
 ------------------------------------------------------------------------------
       Tag                 Description            Shells   Functions and Types
 ---------------- ------------------------------  ------  ---------------------
 *                          cc-pvtz                   on all atoms 



                                 NWChem DFT Module
                                 -----------------


                                     test case


                      Basis "ao basis" -> "ao basis" (cartesian)
                      -----
  Na (Sodium)
  -----------
            Exponent  Coefficients 
       -------------- ---------------------------------------------------------
  1 S  4.23000000E+05  0.000018
  1 S  6.33400000E+04  0.000140
  1 S  1.44100000E+04  0.000738
  1 S  4.07700000E+03  0.003112
  1 S  1.32800000E+03  0.011208
  1 S  4.78600000E+02  0.035283
  1 S  1.86200000E+02  0.095990
  1 S  7.69200000E+01  0.213735
  1 S  3.33200000E+01  0.348688
  1 S  1.50000000E+01  0.324566
  1 S  6.86900000E+00  0.112633
  1 S  2.68300000E+00  0.007068
  1 S  1.10900000E+00  0.000598
  1 S  6.01500000E-02 -0.000005

  2 S  4.23000000E+05 -0.000004
  2 S  6.33400000E+04 -0.000034
  2 S  1.44100000E+04 -0.000180
  2 S  4.07700000E+03 -0.000764
  2 S  1.32800000E+03 -0.002752
  2 S  4.78600000E+02 -0.008860
  2 S  1.86200000E+02 -0.024794
  2 S  7.69200000E+01 -0.060600
  2 S  3.33200000E+01 -0.116446
  2 S  1.50000000E+01 -0.162437
  2 S  6.86900000E+00 -0.043889
  2 S  2.68300000E+00  0.337917
  2 S  1.10900000E+00  0.561347
  2 S  6.01500000E-02  0.004068

  3 S  4.23000000E+05  0.000001
  3 S  6.33400000E+04  0.000005
  3 S  1.44100000E+04  0.000027
  3 S  4.07700000E+03  0.000115
  3 S  1.32800000E+03  0.000415
  3 S  4.78600000E+02  0.001330
  3 S  1.86200000E+02  0.003756
  3 S  7.69200000E+01  0.009140
  3 S  3.33200000E+01  0.017986
  3 S  1.50000000E+01  0.025148
  3 S  6.86900000E+00  0.007635
  3 S  2.68300000E+00 -0.061459
  3 S  1.10900000E+00 -0.115721
  3 S  6.01500000E-02  0.626406

  4 S  4.54000000E-01  1.000000

  5 S  2.38200000E-02  1.000000

  6 P  2.43300000E+02  0.002244
  6 P  5.73900000E+01  0.017400
  6 P  1.81000000E+01  0.077413
  6 P  6.57500000E+00  0.219102
  6 P  2.52100000E+00  0.378522
  6 P  9.60700000E-01  0.394902
  6 P  3.51200000E-01  0.160424
  6 P  9.82700000E-02  0.002333

  7 P  2.43300000E+02 -0.000222
  7 P  5.73900000E+01 -0.001743
  7 P  1.81000000E+01 -0.007755
  7 P  6.57500000E+00 -0.022519
  7 P  2.52100000E+00 -0.038433
  7 P  9.60700000E-01 -0.045018
  7 P  3.51200000E-01 -0.019213
  7 P  9.82700000E-02  0.182697

  8 P  3.73400000E-02  1.000000

  9 P  1.50000000E-02  1.000000

 10 D  1.36700000E-01  1.000000

 11 D  6.36000000E-02  1.000000

 12 F  1.39700000E-01  1.000000

  Cl (Chlorine)
  -------------
            Exponent  Coefficients 
       -------------- ---------------------------------------------------------
  1 S  4.56100000E+05  0.000049
  1 S  6.83300000E+04  0.000383
  1 S  1.55500000E+04  0.002009
  1 S  4.40500000E+03  0.008386
  1 S  1.43900000E+03  0.029470
  1 S  5.20400000E+02  0.087833
  1 S  2.03100000E+02  0.211473
  1 S  8.39600000E+01  0.365364
  1 S  3.62000000E+01  0.340884
  1 S  1.58300000E+01  0.102133
  1 S  6.33400000E+00  0.003117
  1 S  2.69400000E+00  0.001058
  1 S  4.31300000E-01  0.000156

  2 S  4.56100000E+05 -0.000014
  2 S  6.83300000E+04 -0.000107
  2 S  1.55500000E+04 -0.000565
  2 S  4.40500000E+03 -0.002361
  2 S  1.43900000E+03 -0.008459
  2 S  5.20400000E+02 -0.025964
  2 S  2.03100000E+02 -0.068636
  2 S  8.39600000E+01 -0.141874
  2 S  3.62000000E+01 -0.199319
  2 S  1.58300000E+01 -0.019566
  2 S  6.33400000E+00  0.499741
  2 S  2.69400000E+00  0.563736
  2 S  4.31300000E-01 -0.008351

  3 S  4.56100000E+05  0.000004
  3 S  6.83300000E+04  0.000032
  3 S  1.55500000E+04  0.000171
  3 S  4.40500000E+03  0.000714
  3 S  1.43900000E+03  0.002567
  3 S  5.20400000E+02  0.007886
  3 S  2.03100000E+02  0.021087
  3 S  8.39600000E+01  0.044226
  3 S  3.62000000E+01  0.065167
  3 S  1.58300000E+01  0.006030
  3 S  6.33400000E+00 -0.206495
  3 S  2.69400000E+00 -0.405871
  3 S  4.31300000E-01  0.725661

  4 S  9.76800000E-01  1.000000

  5 S  1.62500000E-01  1.000000

  6 P  6.63300000E+02  0.002404
  6 P  1.56800000E+02  0.019215
  6 P  4.99800000E+01  0.088510
  6 P  1.84200000E+01  0.256020
  6 P  7.24000000E+00  0.436927
  6 P  2.92200000E+00  0.350334
  6 P  3.81800000E-01 -0.004584

  7 P  6.63300000E+02 -0.000652
  7 P  1.56800000E+02 -0.005194
  7 P  4.99800000E+01 -0.024694
  7 P  1.84200000E+01 -0.072817
  7 P  7.24000000E+00 -0.134030
  7 P  2.92200000E+00 -0.094774
  7 P  3.81800000E-01  0.564667

  8 P  1.02200000E+00  1.000000

  9 P  1.30100000E-01  1.000000

 10 D  1.04600000E+00  1.000000

 11 D  3.44000000E-01  1.000000

 12 F  7.06000000E-01  1.000000



 Summary of "ao basis" -> "ao basis" (cartesian)
 ------------------------------------------------------------------------------
       Tag                 Description            Shells   Functions and Types
 ---------------- ------------------------------  ------  ---------------------
 Na                         cc-pvtz                 12       39   5s4p2d1f
 Cl                         cc-pvtz                 12       39   5s4p2d1f




 Summary of "ao basis" -> "ao basis" (cartesian)
 ------------------------------------------------------------------------------
       Tag                 Description            Shells   Functions and Types
 ---------------- ------------------------------  ------  ---------------------
 Na                         cc-pvtz                 12       39   5s4p2d1f
 Cl                         cc-pvtz                 12       39   5s4p2d1f


      Symmetry analysis of basis
      --------------------------

        a1         30
        a2          0
        b1          6
        b2          6
        e          36

  Caching 1-el integrals 

            General Information
            -------------------
          SCF calculation type: DFT
          Wavefunction type:  closed shell.
          No. of atoms     :     2
          No. of electrons :    28
           Alpha electrons :    14
            Beta electrons :    14
          Charge           :     0
          Spin multiplicity:     1
          Use of symmetry is: on ; symmetry adaption is: on 
          Maximum number of iterations:  30
          AO basis - number of functions:    78
                     number of shells:    24
          Convergence on energy requested:  1.00D-06
          Convergence on density requested:  1.00D-05
          Convergence on gradient requested:  5.00D-04

              XC Information
              --------------
                         B3LYP Method XC Potential
                     Hartree-Fock (Exact) Exchange  0.200          
                        Slater Exchange Functional  0.800 local    
                    Becke 1988 Exchange Functional  0.720 non-local
              Lee-Yang-Parr Correlation Functional  0.810          
                  VWN I RPA Correlation Functional  0.190 local    

             Grid Information
             ----------------
          Grid used for XC integration:  medium    
          Radial quadrature: Mura-Knowles        
          Angular quadrature: Lebedev. 
          Tag              B.-S. Rad. Rad. Pts. Rad. Cut. Ang. Pts.
          ---              ---------- --------- --------- ---------
          Na                  1.80       88          13.0       434
          Cl                  1.00       88           8.0       590
          Grid pruning is: on 
          Number of quadrature shells:   176
          Spatial weights used:  Erf1

          Convergence Information
          -----------------------
          Convergence aids based upon iterative change in 
          total energy or number of iterations. 
          Levelshifting, if invoked, occurs when the 
          HOMO/LUMO gap drops below (HL_TOL):  1.00D-02
          DIIS, if invoked, will attempt to extrapolate 
          using up to (NFOCK): 10 stored Fock matrices.

                    Damping( 0%)  Levelshifting(0.5)       DIIS
                  --------------- ------------------- ---------------
          dE  on:    start            ASAP                start   
          dE off:    2 iters         30 iters            30 iters 


      Screening Tolerance Information
      -------------------------------
          Density screening/tol_rho:  1.00D-10
          AO Gaussian exp screening on grid/accAOfunc:  14
          CD Gaussian exp screening on grid/accCDfunc:  20
          XC Gaussian exp screening on grid/accXCfunc:  20
          Schwarz screening/accCoul:  1.00D-08


      Superposition of Atomic Density Guess
      -------------------------------------

 Sum of atomic energies:        -621.34444053

      Non-variational initial energy
      ------------------------------

 Total energy =    -622.379910
 1-e energy   =   -1015.160742
 2-e energy   =     314.779110
 HOMO         =      -0.237532
 LUMO         =      -0.025190


      Symmetry analysis of molecular orbitals - initial
      -------------------------------------------------

  Numbering of irreducible representations: 

     1 a1          2 a2          3 b1          4 b2          5 e       

  Orbital symmetries:

     1 a1          2 a1          3 a1          4 a1          5 e       
     6 e           7 a1          8 a1          9 e          10 e       
    11 a1         12 e          13 e          14 a1         15 a1      
    16 e          17 e          18 a1         19 a1         20 e       
    21 e          22 a1         23 b1         24 b2      

   Time after variat. SCF:      2.7
   Time prior to 1st pass:      2.7

 Integral file          = ./nacl_cc-pvtz.aoints.0
 Record size in doubles =  65536        No. of integs per rec  =  43688
 Max. records in memory =     26        Max. records in file   = 183512
 No. of bits per label  =      8        No. of bits per value  =     64


 #quartets = 4.515D+04 #integrals = 1.298D+06 #direct =  0.0% #cached =100.0%


 Grid_pts file          = ./nacl_cc-pvtz.gridpts.0
 Record size in doubles =  12289        No. of grid_pts per rec  =   3070
 Max. records in memory =     39        Max. recs in file   =    978658


           Memory utilization after 1st SCF pass: 
           Heap Space remaining (MW):       10.92            10919084
          Stack Space remaining (MW):       13.11            13106684

   convergence    iter        energy       DeltaE   RMS-Dens  Diis-err    time
 ---------------- ----- ----------------- --------- --------- ---------  ------
 d= 0,ls=0.0,diis     1   -621.7466464495 -7.00D+02  3.47D-02  6.11D-01     6.5
 d= 0,ls=0.0,diis     2   -621.6691706837  7.75D-02  2.42D-02  7.97D-01     6.6
 d= 0,ls=0.0,diis     3   -621.7855212739 -1.16D-01  4.96D-03  9.22D-02     6.7
 d= 0,ls=0.0,diis     4   -621.7991655997 -1.36D-02  1.82D-03  6.17D-03     6.8
 d= 0,ls=0.0,diis     5   -621.7998645723 -6.99D-04  1.63D-04  4.31D-05     6.9
  Resetting Diis
 d= 0,ls=0.0,diis     6   -621.7998689227 -4.35D-06  8.85D-05  9.85D-06     7.0
 d= 0,ls=0.0,diis     7   -621.7998706496 -1.73D-06  1.28D-05  1.46D-07     7.1
 d= 0,ls=0.0,diis     8   -621.7998706336  1.60D-08  7.78D-06  2.43D-07     7.2


         Total DFT energy =     -621.799870633632
      One electron energy =    -1015.825490461849
           Coulomb energy =      359.041077263712
    Exchange-Corr. energy =      -43.017178878423
 Nuclear repulsion energy =       78.001721442928

 Numeric. integr. density =       28.000012221481

     Total iterative time =      4.5s



                  Occupations of the irreducible representations
                  ----------------------------------------------

                     irrep           alpha         beta
                     --------     --------     --------
                     a1                8.0          8.0
                     a2                0.0          0.0
                     b1                0.0          0.0
                     b2                0.0          0.0
                     e                 6.0          6.0


                       DFT Final Molecular Orbital Analysis
                       ------------------------------------

 Vector    1  Occ=2.000000D+00  E=-1.015592D+02  Symmetry=a1
              MO Center= -1.3D-31,  8.5D-31,  5.0D-01, r^2= 3.1D-03
   Bfn.  Coefficient  Atom+Function         Bfn.  Coefficient  Atom+Function  
  ----- ------------  ---------------      ----- ------------  ---------------
    40      1.000348  2 Cl s          

 Vector    2  Occ=2.000000D+00  E=-3.862082D+01  Symmetry=a1
              MO Center= -1.3D-20, -1.9D-20, -7.7D-01, r^2= 7.7D-03
   Bfn.  Coefficient  Atom+Function         Bfn.  Coefficient  Atom+Function  
  ----- ------------  ---------------      ----- ------------  ---------------
     1      1.002099  1 Na s                  3      0.041841  1 Na s          

 Vector    3  Occ=2.000000D+00  E=-9.483051D+00  Symmetry=a1
              MO Center= -3.4D-17, -2.4D-17,  4.9D-01, r^2= 6.6D-02
   Bfn.  Coefficient  Atom+Function         Bfn.  Coefficient  Atom+Function  
  ----- ------------  ---------------      ----- ------------  ---------------
    41      0.913105  2 Cl s                 43      0.114539  2 Cl s          

 Vector    4  Occ=2.000000D+00  E=-7.251349D+00  Symmetry=a1
              MO Center=  2.4D-16,  2.8D-16,  5.0D-01, r^2= 5.8D-02
   Bfn.  Coefficient  Atom+Function         Bfn.  Coefficient  Atom+Function  
  ----- ------------  ---------------      ----- ------------  ---------------
    47      0.978067  2 Cl pz                53      0.064284  2 Cl pz         

 Vector    5  Occ=2.000000D+00  E=-7.230165D+00  Symmetry=e
              MO Center= -2.5D-17,  1.0D-17,  5.0D-01, r^2= 5.8D-02
   Bfn.  Coefficient  Atom+Function         Bfn.  Coefficient  Atom+Function  
  ----- ------------  ---------------      ----- ------------  ---------------
    45      0.738090  2 Cl px                46     -0.640031  2 Cl py         
    51      0.047169  2 Cl px                52     -0.040903  2 Cl py         

 Vector    6  Occ=2.000000D+00  E=-7.230165D+00  Symmetry=e
              MO Center= -1.9D-16, -2.3D-16,  5.0D-01, r^2= 5.8D-02
   Bfn.  Coefficient  Atom+Function         Bfn.  Coefficient  Atom+Function  
  ----- ------------  ---------------      ----- ------------  ---------------
    46      0.738090  2 Cl py                45      0.640031  2 Cl px         
    52      0.047169  2 Cl py                51      0.040903  2 Cl px         

 Vector    7  Occ=2.000000D+00  E=-2.465118D+00  Symmetry=a1
              MO Center=  8.0D-16, -1.4D-15, -6.9D-01, r^2= 2.2D-01
   Bfn.  Coefficient  Atom+Function         Bfn.  Coefficient  Atom+Function  
  ----- ------------  ---------------      ----- ------------  ---------------
     2      0.749633  1 Na s                  4      0.225105  1 Na s          
    44      0.102282  2 Cl s                 11     -0.081880  1 Na pz         
     8      0.066516  1 Na pz                47      0.065994  2 Cl pz         
     3     -0.063441  1 Na s                 42      0.057993  2 Cl s          
    53     -0.052101  2 Cl pz                78     -0.041701  2 Cl fzzz       

 Vector    8  Occ=2.000000D+00  E=-1.463912D+00  Symmetry=a1
              MO Center=  2.4D-16, -5.3D-16, -7.6D-01, r^2= 3.0D-01
   Bfn.  Coefficient  Atom+Function         Bfn.  Coefficient  Atom+Function  
  ----- ------------  ---------------      ----- ------------  ---------------
     8      1.011491  1 Na pz                 3      0.299390  1 Na s          
    44     -0.221671  2 Cl s                 11      0.198220  1 Na pz         
    42      0.162485  2 Cl s                 47      0.148600  2 Cl pz         
    50      0.130328  2 Cl pz                53     -0.125853  2 Cl pz         
     2     -0.091419  1 Na s                 78     -0.085742  2 Cl fzzz       

 Vector    9  Occ=2.000000D+00  E=-1.333872D+00  Symmetry=e
              MO Center=  7.2D-17,  2.5D-15, -7.5D-01, r^2= 2.5D-01
   Bfn.  Coefficient  Atom+Function         Bfn.  Coefficient  Atom+Function  
  ----- ------------  ---------------      ----- ------------  ---------------
     7      0.951415  1 Na py                10     -0.059072  1 Na py         
    77      0.055389  2 Cl fyzz              61     -0.050619  2 Cl dyz        
    38      0.037898  1 Na fyzz              67     -0.035687  2 Cl dyz        
    31      0.035408  1 Na fxxy              36      0.035408  1 Na fyyy       
    52      0.028786  2 Cl py                49      0.025530  2 Cl py         

 Vector   10  Occ=2.000000D+00  E=-1.333872D+00  Symmetry=e
              MO Center= -1.3D-15,  7.2D-16, -7.5D-01, r^2= 2.5D-01
   Bfn.  Coefficient  Atom+Function         Bfn.  Coefficient  Atom+Function  
  ----- ------------  ---------------      ----- ------------  ---------------
     6      0.951415  1 Na px                 9     -0.059072  1 Na px         
    74      0.055389  2 Cl fxzz              59     -0.050619  2 Cl dxz        
    35      0.037898  1 Na fxzz              65     -0.035687  2 Cl dxz        
    30      0.035408  1 Na fxxx              33      0.035408  1 Na fxyy       
    51      0.028786  2 Cl px                48      0.025530  2 Cl px         

 Vector   11  Occ=2.000000D+00  E=-7.152173D-01  Symmetry=a1
              MO Center= -1.9D-16, -3.6D-16,  5.5D-01, r^2= 8.7D-01
   Bfn.  Coefficient  Atom+Function         Bfn.  Coefficient  Atom+Function  
  ----- ------------  ---------------      ----- ------------  ---------------
    42      0.650458  2 Cl s                 44      0.287018  2 Cl s          
     8     -0.273307  1 Na pz                 3      0.179459  1 Na s          
     4     -0.111625  1 Na s                  2     -0.097393  1 Na s          
    43      0.089672  2 Cl s                 11      0.067241  1 Na pz         
    53      0.044750  2 Cl pz                50      0.044115  2 Cl pz         

 Vector   12  Occ=2.000000D+00  E=-3.408868D-01  Symmetry=e
              MO Center=  2.3D-15, -1.0D-16,  4.1D-01, r^2= 1.2D+00
   Bfn.  Coefficient  Atom+Function         Bfn.  Coefficient  Atom+Function  
  ----- ------------  ---------------      ----- ------------  ---------------
    48      0.606402  2 Cl px                54      0.305360  2 Cl px         
    51      0.261642  2 Cl px                 6     -0.240440  1 Na px         
    65     -0.125435  2 Cl dxz               59     -0.051721  2 Cl dxz        
    20      0.046031  1 Na dxz               74      0.043902  2 Cl fxzz       
    49      0.037750  2 Cl py                30      0.027555  1 Na fxxx       

 Vector   13  Occ=2.000000D+00  E=-3.408868D-01  Symmetry=e
              MO Center= -4.1D-16, -1.1D-14,  4.1D-01, r^2= 1.2D+00
   Bfn.  Coefficient  Atom+Function         Bfn.  Coefficient  Atom+Function  
  ----- ------------  ---------------      ----- ------------  ---------------
    49      0.606402  2 Cl py                55      0.305360  2 Cl py         
    52      0.261642  2 Cl py                 7     -0.240440  1 Na py         
    67     -0.125435  2 Cl dyz               61     -0.051721  2 Cl dyz        
    22      0.046031  1 Na dyz               77      0.043902  2 Cl fyzz       
    48     -0.037750  2 Cl px                31      0.027555  1 Na fxxy       

 Vector   14  Occ=2.000000D+00  E=-1.880320D-01  Symmetry=a1
              MO Center= -2.0D-15, -5.0D-16,  2.2D-01, r^2= 2.4D+00
   Bfn.  Coefficient  Atom+Function         Bfn.  Coefficient  Atom+Function  
  ----- ------------  ---------------      ----- ------------  ---------------
     3      0.904783  1 Na s                 56     -0.393647  2 Cl pz         
    44     -0.370234  2 Cl s                 50     -0.364686  2 Cl pz         
    11      0.360065  1 Na pz                 4     -0.281260  1 Na s          
    53     -0.254662  2 Cl pz                29     -0.159350  1 Na dzz        
    14     -0.140827  1 Na pz                18     -0.126685  1 Na dxx        

 Vector   15  Occ=0.000000D+00  E=-4.656568D-02  Symmetry=a1
              MO Center= -1.3D-15, -1.2D-14, -1.6D+00, r^2= 7.6D+00
   Bfn.  Coefficient  Atom+Function         Bfn.  Coefficient  Atom+Function  
  ----- ------------  ---------------      ----- ------------  ---------------
     5      0.962411  1 Na s                 56      0.320069  2 Cl pz         
    44     -0.307957  2 Cl s                  3      0.292839  1 Na s          
    11     -0.228500  1 Na pz                14     -0.191582  1 Na pz         
    50      0.176551  2 Cl pz                24     -0.151732  1 Na dxx        
    27     -0.151732  1 Na dyy               42     -0.129430  2 Cl s          

 Vector   16  Occ=0.000000D+00  E= 7.379470D-05  Symmetry=e
              MO Center= -7.9D-15, -5.6D-15, -1.1D+00, r^2= 1.8D+01
   Bfn.  Coefficient  Atom+Function         Bfn.  Coefficient  Atom+Function  
  ----- ------------  ---------------      ----- ------------  ---------------
    15      0.670824  1 Na px                16      0.405614  1 Na py         
    26     -0.268549  1 Na dxz                9      0.210353  1 Na px         
    28     -0.162378  1 Na dyz               48     -0.161874  2 Cl px         
    12      0.133603  1 Na px                10      0.127190  1 Na py         
    49     -0.097877  2 Cl py                13      0.080783  1 Na py         

 Vector   17  Occ=0.000000D+00  E= 7.379470D-05  Symmetry=e
              MO Center=  4.9D-15, -4.9D-15, -1.1D+00, r^2= 1.8D+01
   Bfn.  Coefficient  Atom+Function         Bfn.  Coefficient  Atom+Function  
  ----- ------------  ---------------      ----- ------------  ---------------
    16      0.670824  1 Na py                15     -0.405614  1 Na px         
    28     -0.268549  1 Na dyz               10      0.210353  1 Na py         
    26      0.162378  1 Na dxz               49     -0.161874  2 Cl py         
    13      0.133603  1 Na py                 9     -0.127190  1 Na px         
    48      0.097877  2 Cl px                12     -0.080783  1 Na px         

 Vector   18  Occ=0.000000D+00  E= 1.051882D-02  Symmetry=a1
              MO Center= -5.1D-15,  1.0D-14, -6.5D-02, r^2= 2.4D+01
   Bfn.  Coefficient  Atom+Function         Bfn.  Coefficient  Atom+Function  
  ----- ------------  ---------------      ----- ------------  ---------------
    17      1.086235  1 Na pz                 5      0.461592  1 Na s          
     3      0.381031  1 Na s                 11      0.374148  1 Na pz         
    29     -0.309019  1 Na dzz               14     -0.263108  1 Na pz         
    44     -0.255034  2 Cl s                  8      0.231922  1 Na pz         
    42     -0.128177  2 Cl s                 56      0.098891  2 Cl pz         

 Vector   19  Occ=0.000000D+00  E= 4.223867D-02  Symmetry=a1
              MO Center=  2.6D-14,  2.1D-14, -2.2D+00, r^2= 1.6D+01
   Bfn.  Coefficient  Atom+Function         Bfn.  Coefficient  Atom+Function  
  ----- ------------  ---------------      ----- ------------  ---------------
     5      2.337084  1 Na s                 11      1.067498  1 Na pz         
     3     -0.911924  1 Na s                 29     -0.813071  1 Na dzz        
    17     -0.718226  1 Na pz                14      0.683067  1 Na pz         
    44     -0.633534  2 Cl s                  8      0.458995  1 Na pz         
    24     -0.417624  1 Na dxx               27     -0.417624  1 Na dyy        

 Vector   20  Occ=0.000000D+00  E= 5.258049D-02  Symmetry=e
              MO Center= -6.5D-15,  1.6D-14, -1.0D+00, r^2= 2.4D+01
   Bfn.  Coefficient  Atom+Function         Bfn.  Coefficient  Atom+Function  
  ----- ------------  ---------------      ----- ------------  ---------------
    13      1.296813  1 Na py                16     -1.215781  1 Na py         
    12     -0.737534  1 Na px                15      0.691449  1 Na px         
    28     -0.429065  1 Na dyz               10      0.325544  1 Na py         
    26      0.244021  1 Na dxz                9     -0.185146  1 Na px         
    31     -0.168154  1 Na fxxy              36     -0.168154  1 Na fyyy       

 Vector   21  Occ=0.000000D+00  E= 5.258049D-02  Symmetry=e
              MO Center= -6.3D-14,  1.1D-14, -1.0D+00, r^2= 2.4D+01
   Bfn.  Coefficient  Atom+Function         Bfn.  Coefficient  Atom+Function  
  ----- ------------  ---------------      ----- ------------  ---------------
    12      1.296813  1 Na px                15     -1.215781  1 Na px         
    13      0.737534  1 Na py                16     -0.691449  1 Na py         
    26     -0.429065  1 Na dxz                9      0.325544  1 Na px         
    28     -0.244021  1 Na dyz               10      0.185146  1 Na py         
    30     -0.168154  1 Na fxxx              33     -0.168154  1 Na fxyy       

 Vector   22  Occ=0.000000D+00  E= 8.157436D-02  Symmetry=a1
              MO Center=  1.4D-14, -8.5D-15,  2.6D-02, r^2= 1.9D+01
   Bfn.  Coefficient  Atom+Function         Bfn.  Coefficient  Atom+Function  
  ----- ------------  ---------------      ----- ------------  ---------------
    44     -2.316301  2 Cl s                  5      2.167382  1 Na s          
    11      2.078327  1 Na pz                14     -1.933448  1 Na pz         
    17      1.138685  1 Na pz                24     -1.130719  1 Na dxx        
    27     -1.130719  1 Na dyy                8      1.022795  1 Na pz         
    23      0.692702  1 Na dzz               29     -0.691883  1 Na dzz        

 Vector   23  Occ=0.000000D+00  E= 9.952289D-02  Symmetry=b2
              MO Center=  2.2D-15, -3.4D-16, -6.6D-01, r^2= 7.7D+00
   Bfn.  Coefficient  Atom+Function         Bfn.  Coefficient  Atom+Function  
  ----- ------------  ---------------      ----- ------------  ---------------
    25      1.760389  1 Na dxy               64      0.176198  2 Cl dxy        
    19     -0.117916  1 Na dxy               34      0.098926  1 Na fxyz       
    58      0.077737  2 Cl dxy               73     -0.055639  2 Cl fxyz       

 Vector   24  Occ=0.000000D+00  E= 9.952314D-02  Symmetry=b1
              MO Center=  5.8D-14,  2.0D-14, -6.6D-01, r^2= 7.7D+00
   Bfn.  Coefficient  Atom+Function         Bfn.  Coefficient  Atom+Function  
  ----- ------------  ---------------      ----- ------------  ---------------
    24      0.880195  1 Na dxx               27     -0.880195  1 Na dyy        
    63      0.088099  2 Cl dxx               66     -0.088099  2 Cl dyy        
    18     -0.058958  1 Na dxx               21      0.058958  1 Na dyy        
    32      0.049462  1 Na fxxz              37     -0.049462  1 Na fyyz       
    57      0.038867  2 Cl dxx               60     -0.038867  2 Cl dyy        

 Vector   25  Occ=0.000000D+00  E= 1.323692D-01  Symmetry=e
              MO Center=  1.3D-15,  4.0D-16, -1.9D-01, r^2= 1.1D+01
   Bfn.  Coefficient  Atom+Function         Bfn.  Coefficient  Atom+Function  
  ----- ------------  ---------------      ----- ------------  ---------------
    28     -1.669746  1 Na dyz               26      1.564295  1 Na dxz        
    13     -0.832523  1 Na py                12      0.779946  1 Na px         
    55      0.474144  2 Cl py                54     -0.444200  2 Cl px         
    16      0.407222  1 Na py                15     -0.381504  1 Na px         
    22      0.328380  1 Na dyz               20     -0.307641  1 Na dxz        

 Vector   26  Occ=0.000000D+00  E= 1.323692D-01  Symmetry=e
              MO Center=  1.8D-15, -1.1D-15, -1.9D-01, r^2= 1.1D+01
   Bfn.  Coefficient  Atom+Function         Bfn.  Coefficient  Atom+Function  
  ----- ------------  ---------------      ----- ------------  ---------------
    26      1.669746  1 Na dxz               28      1.564295  1 Na dyz        
    12      0.832523  1 Na px                13      0.779946  1 Na py         
    54     -0.474144  2 Cl px                55     -0.444200  2 Cl py         
    15     -0.407222  1 Na px                16     -0.381504  1 Na py         
    20     -0.328380  1 Na dxz               22     -0.307641  1 Na dyz        

 Vector   27  Occ=0.000000D+00  E= 1.432153D-01  Symmetry=a1
              MO Center= -8.4D-16,  6.0D-16, -3.9D-02, r^2= 1.3D+01
   Bfn.  Coefficient  Atom+Function         Bfn.  Coefficient  Atom+Function  
  ----- ------------  ---------------      ----- ------------  ---------------
    29      1.870817  1 Na dzz               44     -1.829020  2 Cl s          
    14      1.794432  1 Na pz                11     -1.049365  1 Na pz         
     3     -0.866834  1 Na s                 56     -0.858436  2 Cl pz         
    17     -0.739509  1 Na pz                 8     -0.617684  1 Na pz         
    63      0.462340  2 Cl dxx               66      0.462340  2 Cl dyy        

 Vector   28  Occ=0.000000D+00  E= 2.138044D-01  Symmetry=a1
              MO Center= -7.5D-15,  1.3D-15, -1.9D+00, r^2= 1.0D+01
   Bfn.  Coefficient  Atom+Function         Bfn.  Coefficient  Atom+Function  
  ----- ------------  ---------------      ----- ------------  ---------------
     5      2.558219  1 Na s                 29     -2.409049  1 Na dzz        
     3      1.637877  1 Na s                 24     -1.453021  1 Na dxx        
    27     -1.453021  1 Na dyy               56      1.000605  2 Cl pz         
    39     -0.697978  1 Na fzzz              14      0.689621  1 Na pz         
    32     -0.646186  1 Na fxxz              37     -0.646186  1 Na fyyz       

 Vector   29  Occ=0.000000D+00  E= 2.158773D-01  Symmetry=e
              MO Center=  7.7D-15, -1.0D-15, -1.0D+00, r^2= 9.7D+00
   Bfn.  Coefficient  Atom+Function         Bfn.  Coefficient  Atom+Function  
  ----- ------------  ---------------      ----- ------------  ---------------
     9      2.217804  1 Na px                12     -1.749803  1 Na px         
    54     -1.350791  2 Cl px                26      1.280416  1 Na dxz        
     6      1.043105  1 Na px                15      0.738648  1 Na px         
    10     -0.395429  1 Na py                35      0.357669  1 Na fxzz       
    13      0.311986  1 Na py                48      0.268407  2 Cl px         

 Vector   30  Occ=0.000000D+00  E= 2.158773D-01  Symmetry=e
              MO Center= -5.5D-14, -9.9D-15, -1.0D+00, r^2= 9.7D+00
   Bfn.  Coefficient  Atom+Function         Bfn.  Coefficient  Atom+Function  
  ----- ------------  ---------------      ----- ------------  ---------------
    10      2.217804  1 Na py                13     -1.749803  1 Na py         
    55     -1.350791  2 Cl py                28      1.280416  1 Na dyz        
     7      1.043105  1 Na py                16      0.738648  1 Na py         
     9      0.395429  1 Na px                38      0.357669  1 Na fyzz       
    12     -0.311986  1 Na px                49      0.268407  2 Cl py         

 Vector   31  Occ=0.000000D+00  E= 2.968268D-01  Symmetry=a1
              MO Center=  4.8D-16, -2.1D-16, -6.8D-01, r^2= 9.6D+00
   Bfn.  Coefficient  Atom+Function         Bfn.  Coefficient  Atom+Function  
  ----- ------------  ---------------      ----- ------------  ---------------
    44      5.852382  2 Cl s                  3     -4.671582  1 Na s          
    11     -3.954470  1 Na pz                 8     -2.296106  1 Na pz         
    24      2.065833  1 Na dxx               27      2.065833  1 Na dyy        
    14      1.933196  1 Na pz                56     -1.546655  2 Cl pz         
     5     -1.494528  1 Na s                 29      1.142881  1 Na dzz        

 Vector   32  Occ=0.000000D+00  E= 3.087569D-01  Symmetry=b2
              MO Center=  4.8D-14, -1.9D-15, -3.6D-01, r^2= 4.9D+00
   Bfn.  Coefficient  Atom+Function         Bfn.  Coefficient  Atom+Function  
  ----- ------------  ---------------      ----- ------------  ---------------
    34      1.810857  1 Na fxyz              19      1.768435  1 Na dxy        
    25     -1.626112  1 Na dxy               64      0.373490  2 Cl dxy        
    58      0.288960  2 Cl dxy               73     -0.084857  2 Cl fxyz       

 Vector   33  Occ=0.000000D+00  E= 3.087582D-01  Symmetry=b1
              MO Center=  1.1D-14,  3.3D-14, -3.6D-01, r^2= 4.9D+00
   Bfn.  Coefficient  Atom+Function         Bfn.  Coefficient  Atom+Function  
  ----- ------------  ---------------      ----- ------------  ---------------
    32      0.905432  1 Na fxxz              37     -0.905432  1 Na fyyz       
    18      0.884223  1 Na dxx               21     -0.884223  1 Na dyy        
    24     -0.813058  1 Na dxx               27      0.813058  1 Na dyy        
    63      0.186744  2 Cl dxx               66     -0.186744  2 Cl dyy        
    57      0.144475  2 Cl dxx               60     -0.144475  2 Cl dyy        

 Vector   34  Occ=0.000000D+00  E= 3.178656D-01  Symmetry=e
              MO Center=  1.0D-14,  4.1D-15, -7.2D-02, r^2= 5.6D+00
   Bfn.  Coefficient  Atom+Function         Bfn.  Coefficient  Atom+Function  
  ----- ------------  ---------------      ----- ------------  ---------------
    22      2.428736  1 Na dyz               55     -2.288212  2 Cl py         
    10      1.261998  1 Na py                20      1.011692  1 Na dxz        
    54     -0.953156  2 Cl px                13      0.809097  1 Na py         
    49      0.720995  2 Cl py                 7      0.653801  1 Na py         
     9      0.525686  1 Na px                31     -0.371093  1 Na fxxy       

 Vector   35  Occ=0.000000D+00  E= 3.178656D-01  Symmetry=e
              MO Center=  1.7D-15,  3.8D-15, -7.2D-02, r^2= 5.6D+00
   Bfn.  Coefficient  Atom+Function         Bfn.  Coefficient  Atom+Function  
  ----- ------------  ---------------      ----- ------------  ---------------
    20      2.428736  1 Na dxz               54     -2.288212  2 Cl px         
     9      1.261998  1 Na px                22     -1.011692  1 Na dyz        
    55      0.953156  2 Cl py                12      0.809097  1 Na px         
    48      0.720995  2 Cl px                 6      0.653801  1 Na px         
    10     -0.525686  1 Na py                30     -0.371093  1 Na fxxx       

 Vector   36  Occ=0.000000D+00  E= 4.214362D-01  Symmetry=b2
              MO Center= -1.1D-14, -1.7D-14, -1.0D+00, r^2= 4.7D+00
   Bfn.  Coefficient  Atom+Function         Bfn.  Coefficient  Atom+Function  
  ----- ------------  ---------------      ----- ------------  ---------------
    34      2.839098  1 Na fxyz              19     -1.828116  1 Na dxy        
    25      1.286665  1 Na dxy               58      0.089849  2 Cl dxy        
    73      0.076451  2 Cl fxyz              64      0.035304  2 Cl dxy        

 Vector   37  Occ=0.000000D+00  E= 4.214363D-01  Symmetry=b1
              MO Center=  1.7D-13,  2.3D-13, -1.0D+00, r^2= 4.7D+00
   Bfn.  Coefficient  Atom+Function         Bfn.  Coefficient  Atom+Function  
  ----- ------------  ---------------      ----- ------------  ---------------
    32      1.419553  1 Na fxxz              37     -1.419553  1 Na fyyz       
    18     -0.914055  1 Na dxx               21      0.914055  1 Na dyy        
    24      0.643331  1 Na dxx               27     -0.643331  1 Na dyy        
    57      0.044924  2 Cl dxx               60     -0.044924  2 Cl dyy        
    71      0.038227  2 Cl fxxz              76     -0.038227  2 Cl fyyz       

 Vector   38  Occ=0.000000D+00  E= 4.244781D-01  Symmetry=a1
              MO Center=  3.6D-17,  4.9D-17,  3.4D-01, r^2= 5.1D+00
   Bfn.  Coefficient  Atom+Function         Bfn.  Coefficient  Atom+Function  
  ----- ------------  ---------------      ----- ------------  ---------------
    44      4.292872  2 Cl s                 11     -3.527673  1 Na pz         
    23     -3.019491  1 Na dzz                8     -2.255686  1 Na pz         
    50     -1.875600  2 Cl pz                56      1.603754  2 Cl pz         
     3     -0.950419  1 Na s                  5     -0.829313  1 Na s          
    47     -0.752008  2 Cl pz                24      0.613210  1 Na dxx        

 Vector   39  Occ=0.000000D+00  E= 4.512198D-01  Symmetry=e
              MO Center=  1.3D-14,  1.8D-14, -7.7D-01, r^2= 4.5D+00
   Bfn.  Coefficient  Atom+Function         Bfn.  Coefficient  Atom+Function  
  ----- ------------  ---------------      ----- ------------  ---------------
    33      1.949844  1 Na fxyy              31      1.341708  1 Na fxxy       
    30     -0.649949  1 Na fxxx              36     -0.447236  1 Na fyyy       
    72      0.028220  2 Cl fxyy       

 Vector   40  Occ=0.000000D+00  E= 4.512198D-01  Symmetry=e
              MO Center= -2.1D-13, -2.9D-13, -7.7D-01, r^2= 4.5D+00
   Bfn.  Coefficient  Atom+Function         Bfn.  Coefficient  Atom+Function  
  ----- ------------  ---------------      ----- ------------  ---------------
    31      1.949844  1 Na fxxy              33     -1.341708  1 Na fxyy       
    36     -0.649949  1 Na fyyy              30      0.447236  1 Na fxxx       
    70      0.028220  2 Cl fxxy       

 Vector   41  Occ=0.000000D+00  E= 5.037655D-01  Symmetry=a1
              MO Center= -9.4D-16,  6.4D-18,  4.9D-01, r^2= 8.0D+00
   Bfn.  Coefficient  Atom+Function         Bfn.  Coefficient  Atom+Function  
  ----- ------------  ---------------      ----- ------------  ---------------
     3      6.540512  1 Na s                 56      3.623900  2 Cl pz         
    11      3.589608  1 Na pz                29     -3.323856  1 Na dzz        
    14     -2.139030  1 Na pz                 8      1.969121  1 Na pz         
     2      1.613764  1 Na s                 50     -1.369646  2 Cl pz         
    18     -1.177641  1 Na dxx               21     -1.177641  1 Na dyy        

 Vector   42  Occ=0.000000D+00  E= 5.064153D-01  Symmetry=e
              MO Center= -1.2D-16,  5.8D-16, -6.2D-01, r^2= 6.5D+00
   Bfn.  Coefficient  Atom+Function         Bfn.  Coefficient  Atom+Function  
  ----- ------------  ---------------      ----- ------------  ---------------
    54      3.115760  2 Cl px                 9     -2.237699  1 Na px         
    26     -2.196635  1 Na dxz               35     -2.001571  1 Na fxzz       
    55     -1.482327  2 Cl py                48     -1.268090  2 Cl px         
     6     -1.168308  1 Na px                30      1.103459  1 Na fxxx       
    33      1.103463  1 Na fxyy              10      1.064589  1 Na py         

 Vector   43  Occ=0.000000D+00  E= 5.064153D-01  Symmetry=e
              MO Center=  2.1D-16,  1.8D-16, -6.2D-01, r^2= 6.5D+00
   Bfn.  Coefficient  Atom+Function         Bfn.  Coefficient  Atom+Function  
  ----- ------------  ---------------      ----- ------------  ---------------
    55      3.115760  2 Cl py                10     -2.237699  1 Na py         
    28     -2.196635  1 Na dyz               38     -2.001571  1 Na fyzz       
    54      1.482327  2 Cl px                49     -1.268090  2 Cl py         
     7     -1.168308  1 Na py                31      1.103463  1 Na fxxy       
    36      1.103459  1 Na fyyy               9     -1.064589  1 Na px         

 Vector   44  Occ=0.000000D+00  E= 5.789217D-01  Symmetry=a1
              MO Center= -1.7D-16,  4.5D-18, -9.2D-01, r^2= 5.6D+00
   Bfn.  Coefficient  Atom+Function         Bfn.  Coefficient  Atom+Function  
  ----- ------------  ---------------      ----- ------------  ---------------
    44     -7.276983  2 Cl s                 11      6.980135  1 Na pz         
     3      4.691406  1 Na s                 23      4.595952  1 Na dzz        
     8      3.962597  1 Na pz                32     -3.445435  1 Na fxxz       
    37     -3.445435  1 Na fyyz              39      2.437824  1 Na fzzz       
     2      1.232969  1 Na s                 56     -1.121153  2 Cl pz         

 Vector   45  Occ=0.000000D+00  E= 6.023996D-01  Symmetry=e
              MO Center=  4.1D-16,  1.7D-17, -4.6D-01, r^2= 4.7D+00
   Bfn.  Coefficient  Atom+Function         Bfn.  Coefficient  Atom+Function  
  ----- ------------  ---------------      ----- ------------  ---------------
    38      3.455284  1 Na fyzz              22      3.124139  1 Na dyz        
    49     -3.116194  2 Cl py                10      1.791088  1 Na py         
    46     -1.381164  2 Cl py                31     -1.089424  1 Na fxxy       
    36     -1.089425  1 Na fyyy               7      0.983914  1 Na py         
    55     -0.833023  2 Cl py                77      0.767121  2 Cl fyzz       

 Vector   46  Occ=0.000000D+00  E= 6.023996D-01  Symmetry=e
              MO Center= -2.8D-17,  3.1D-16, -4.6D-01, r^2= 4.7D+00
   Bfn.  Coefficient  Atom+Function         Bfn.  Coefficient  Atom+Function  
  ----- ------------  ---------------      ----- ------------  ---------------
    35      3.455284  1 Na fxzz              20      3.124139  1 Na dxz        
    48     -3.116194  2 Cl px                 9      1.791088  1 Na px         
    45     -1.381164  2 Cl px                30     -1.089425  1 Na fxxx       
    33     -1.089424  1 Na fxyy               6      0.983914  1 Na px         
    54     -0.833023  2 Cl px                74      0.767121  2 Cl fxzz       

 Vector   47  Occ=0.000000D+00  E= 6.586246D-01  Symmetry=e
              MO Center= -4.3D-17,  2.9D-16, -6.8D-02, r^2= 4.9D+00
   Bfn.  Coefficient  Atom+Function         Bfn.  Coefficient  Atom+Function  
  ----- ------------  ---------------      ----- ------------  ---------------
    35      4.227764  1 Na fxzz              54     -3.974128  2 Cl px         
    20      3.425137  1 Na dxz                9      1.064803  1 Na px         
     6      1.043414  1 Na px                65      1.040845  2 Cl dxz        
    30      0.925670  1 Na fxxx              33      0.925670  1 Na fxyy       
    12     -0.856155  1 Na px                26      0.833915  1 Na dxz        

 Vector   48  Occ=0.000000D+00  E= 6.586246D-01  Symmetry=e
              MO Center= -1.3D-15, -1.9D-16, -6.8D-02, r^2= 4.9D+00
   Bfn.  Coefficient  Atom+Function         Bfn.  Coefficient  Atom+Function  
  ----- ------------  ---------------      ----- ------------  ---------------
    38      4.227764  1 Na fyzz              55     -3.974128  2 Cl py         
    22      3.425137  1 Na dyz               10      1.064803  1 Na py         
     7      1.043414  1 Na py                67      1.040845  2 Cl dyz        
    31      0.925670  1 Na fxxy              36      0.925670  1 Na fyyy       
    13     -0.856155  1 Na py                28      0.833915  1 Na dyz        

 Vector   49  Occ=0.000000D+00  E= 7.383465D-01  Symmetry=b2
              MO Center= -2.3D-15,  1.3D-15, -2.6D-03, r^2= 3.2D+00
   Bfn.  Coefficient  Atom+Function         Bfn.  Coefficient  Atom+Function  
  ----- ------------  ---------------      ----- ------------  ---------------
    34      3.149614  1 Na fxyz              64     -1.827248  2 Cl dxy        
    19      1.555732  1 Na dxy               25     -0.609521  1 Na dxy        
    58     -0.397111  2 Cl dxy               73      0.074096  2 Cl fxyz       

 Vector   50  Occ=0.000000D+00  E= 7.383506D-01  Symmetry=b1
              MO Center= -1.3D-15, -2.4D-15, -2.6D-03, r^2= 3.2D+00
   Bfn.  Coefficient  Atom+Function         Bfn.  Coefficient  Atom+Function  
  ----- ------------  ---------------      ----- ------------  ---------------
    32      1.574805  1 Na fxxz              37     -1.574805  1 Na fyyz       
    63     -0.913634  2 Cl dxx               66      0.913634  2 Cl dyy        
    18      0.777864  1 Na dxx               21     -0.777864  1 Na dyy        
    24     -0.304758  1 Na dxx               27      0.304758  1 Na dyy        
    57     -0.198548  2 Cl dxx               60      0.198548  2 Cl dyy        

 Vector   51  Occ=0.000000D+00  E= 7.401529D-01  Symmetry=a1
              MO Center= -1.3D-16, -2.8D-16, -1.4D+00, r^2= 4.6D+00
   Bfn.  Coefficient  Atom+Function         Bfn.  Coefficient  Atom+Function  
  ----- ------------  ---------------      ----- ------------  ---------------
    11      4.204927  1 Na pz                 3     -3.016356  1 Na s          
    39     -2.767539  1 Na fzzz              32     -2.490785  1 Na fxxz       
    37     -2.490785  1 Na fyyz               8      2.223866  1 Na pz         
    23      1.756166  1 Na dzz               18      1.616437  1 Na dxx        
    21      1.616437  1 Na dyy                4      1.379182  1 Na s          

 Vector   52  Occ=0.000000D+00  E= 8.851381D-01  Symmetry=a1
              MO Center= -3.7D-16, -9.1D-17, -2.6D-02, r^2= 4.1D+00
   Bfn.  Coefficient  Atom+Function         Bfn.  Coefficient  Atom+Function  
  ----- ------------  ---------------      ----- ------------  ---------------
    44     14.295499  2 Cl s                 11     -8.075263  1 Na pz         
     3     -5.042927  1 Na s                  8     -4.093804  1 Na pz         
    23     -4.038421  1 Na dzz               68     -1.976010  2 Cl dzz        
    24      1.767817  1 Na dxx               27      1.767817  1 Na dyy        
    42     -1.765280  2 Cl s                 32      1.579511  1 Na fxxz       

 Vector   53  Occ=0.000000D+00  E= 8.855743D-01  Symmetry=e
              MO Center= -1.8D-18,  1.1D-18, -3.8D-01, r^2= 4.1D+00
   Bfn.  Coefficient  Atom+Function         Bfn.  Coefficient  Atom+Function  
  ----- ------------  ---------------      ----- ------------  ---------------
    10      6.624653  1 Na py                 9     -4.167707  1 Na px         
    22      3.826318  1 Na dyz                7      3.550030  1 Na py         
    31     -3.282474  1 Na fxxy              36     -3.282476  1 Na fyyy       
    55     -2.869183  2 Cl py                20     -2.407216  1 Na dxz        
     6     -2.233398  1 Na px                30      2.065074  1 Na fxxx       

 Vector   54  Occ=0.000000D+00  E= 8.855743D-01  Symmetry=e
              MO Center= -1.6D-15,  1.6D-15, -3.8D-01, r^2= 4.1D+00
   Bfn.  Coefficient  Atom+Function         Bfn.  Coefficient  Atom+Function  
  ----- ------------  ---------------      ----- ------------  ---------------
     9      6.624653  1 Na px                10      4.167707  1 Na py         
    20      3.826318  1 Na dxz                6      3.550030  1 Na px         
    30     -3.282476  1 Na fxxx              33     -3.282474  1 Na fxyy       
    54     -2.869183  2 Cl px                22      2.407216  1 Na dyz        
     7      2.233398  1 Na py                31     -2.065073  1 Na fxxy       

 Vector   55  Occ=0.000000D+00  E= 1.079697D+00  Symmetry=a1
              MO Center=  2.3D-16,  2.3D-17, -3.7D-01, r^2= 4.1D+00
   Bfn.  Coefficient  Atom+Function         Bfn.  Coefficient  Atom+Function  
  ----- ------------  ---------------      ----- ------------  ---------------
    11     11.036029  1 Na pz                 3      6.372925  1 Na s          
    32     -6.318861  1 Na fxxz              37     -6.318861  1 Na fyyz       
     8      5.861362  1 Na pz                18     -2.982070  1 Na dxx        
    21     -2.982070  1 Na dyy               44      2.843837  2 Cl s          
    39     -2.722350  1 Na fzzz              23      2.609223  1 Na dzz        

 Vector   56  Occ=0.000000D+00  E= 1.408248D+00  Symmetry=a1
              MO Center= -1.8D-16, -5.0D-17,  7.8D-01, r^2= 5.2D+00
   Bfn.  Coefficient  Atom+Function         Bfn.  Coefficient  Atom+Function  
  ----- ------------  ---------------      ----- ------------  ---------------
     3     20.746571  1 Na s                 11     16.164608  1 Na pz         
    44    -13.665243  2 Cl s                  8      9.162517  1 Na pz         
     2      5.064462  1 Na s                 32     -5.033384  1 Na fxxz       
    37     -5.033384  1 Na fyyz              29     -4.444923  1 Na dzz        
    56      3.815597  2 Cl pz                18     -3.745711  1 Na dxx        

 Vector   57  Occ=0.000000D+00  E= 1.740352D+00  Symmetry=e
              MO Center=  1.9D-17,  3.8D-17,  3.8D-01, r^2= 2.9D+00
   Bfn.  Coefficient  Atom+Function         Bfn.  Coefficient  Atom+Function  
  ----- ------------  ---------------      ----- ------------  ---------------
    48      8.569388  2 Cl px                45      4.454975  2 Cl px         
    49      3.523517  2 Cl py                74     -2.936440  2 Cl fxzz       
    69     -2.912634  2 Cl fxxx              72     -2.912684  2 Cl fxyy       
    51     -2.875353  2 Cl px                 9     -1.995972  1 Na px         
    20     -1.925665  1 Na dxz               46      1.831774  2 Cl py         

 Vector   58  Occ=0.000000D+00  E= 1.740352D+00  Symmetry=e
              MO Center= -2.5D-17,  1.0D-17,  3.8D-01, r^2= 2.9D+00
   Bfn.  Coefficient  Atom+Function         Bfn.  Coefficient  Atom+Function  
  ----- ------------  ---------------      ----- ------------  ---------------
    49      8.569388  2 Cl py                46      4.454975  2 Cl py         
    48     -3.523517  2 Cl px                77     -2.936440  2 Cl fyzz       
    70     -2.912684  2 Cl fxxy              75     -2.912634  2 Cl fyyy       
    52     -2.875353  2 Cl py                10     -1.995972  1 Na py         
    22     -1.925665  1 Na dyz               45     -1.831774  2 Cl px         

 Vector   59  Occ=0.000000D+00  E= 1.885543D+00  Symmetry=a1
              MO Center=  1.1D-17,  2.5D-19, -2.0D-01, r^2= 4.9D+00
   Bfn.  Coefficient  Atom+Function         Bfn.  Coefficient  Atom+Function  
  ----- ------------  ---------------      ----- ------------  ---------------
    44     39.382814  2 Cl s                  3    -13.974252  1 Na s          
    68     -9.365914  2 Cl dzz               63     -7.649914  2 Cl dxx        
    66     -7.649914  2 Cl dyy               11     -6.112252  1 Na pz         
    43     -5.921444  2 Cl s                 50      5.338326  2 Cl pz         
    56     -4.226483  2 Cl pz                 8     -3.463049  1 Na pz         

 Vector   60  Occ=0.000000D+00  E= 1.969202D+00  Symmetry=b2
              MO Center=  1.8D-16, -3.5D-16,  5.4D-01, r^2= 1.0D+00
   Bfn.  Coefficient  Atom+Function         Bfn.  Coefficient  Atom+Function  
  ----- ------------  ---------------      ----- ------------  ---------------
    73      2.951487  2 Cl fxyz              58     -1.370906  2 Cl dxy        
    64      1.291550  2 Cl dxy               34     -0.659287  1 Na fxyz       
    25     -0.159825  1 Na dxy               19     -0.026231  1 Na dxy        

 Vector   61  Occ=0.000000D+00  E= 1.969235D+00  Symmetry=b1
              MO Center= -9.6D-17, -5.1D-17,  5.4D-01, r^2= 1.0D+00
   Bfn.  Coefficient  Atom+Function         Bfn.  Coefficient  Atom+Function  
  ----- ------------  ---------------      ----- ------------  ---------------
    71      1.475716  2 Cl fxxz              76     -1.475716  2 Cl fyyz       
    57     -0.685474  2 Cl dxx               60      0.685474  2 Cl dyy        
    63      0.645786  2 Cl dxx               66     -0.645786  2 Cl dyy        
    32     -0.329649  1 Na fxxz              37      0.329649  1 Na fyyz       
    24     -0.079910  1 Na dxx               27      0.079910  1 Na dyy        

 Vector   62  Occ=0.000000D+00  E= 2.011635D+00  Symmetry=a1
              MO Center= -7.1D-17, -3.3D-17,  3.6D-01, r^2= 3.4D+00
   Bfn.  Coefficient  Atom+Function         Bfn.  Coefficient  Atom+Function  
  ----- ------------  ---------------      ----- ------------  ---------------
     3     16.865064  1 Na s                 11     16.603660  1 Na pz         
    44    -11.642795  2 Cl s                 50     10.684738  2 Cl pz         
     8      9.402796  1 Na pz                32     -6.212234  1 Na fxxz       
    37     -6.212234  1 Na fyyz              47      5.386913  2 Cl pz         
    39     -4.590207  1 Na fzzz               2      3.928129  1 Na s          

 Vector   63  Occ=0.000000D+00  E= 2.070496D+00  Symmetry=e
              MO Center= -6.2D-18,  1.0D-17,  6.0D-01, r^2= 1.2D+00
   Bfn.  Coefficient  Atom+Function         Bfn.  Coefficient  Atom+Function  
  ----- ------------  ---------------      ----- ------------  ---------------
    77      2.483200  2 Cl fyzz              10      2.407111  1 Na py         
    22      2.147312  1 Na dyz               55     -1.883304  2 Cl py         
    67      1.361459  2 Cl dyz                7      1.189225  1 Na py         
    38      1.154511  1 Na fyzz              61     -0.907377  2 Cl dyz        
    31     -0.737414  1 Na fxxy              36     -0.737310  1 Na fyyy       

 Vector   64  Occ=0.000000D+00  E= 2.070496D+00  Symmetry=e
              MO Center=  2.8D-18,  2.5D-17,  6.0D-01, r^2= 1.2D+00
   Bfn.  Coefficient  Atom+Function         Bfn.  Coefficient  Atom+Function  
  ----- ------------  ---------------      ----- ------------  ---------------
    74      2.483200  2 Cl fxzz               9      2.407111  1 Na px         
    20      2.147312  1 Na dxz               54     -1.883304  2 Cl px         
    65      1.361459  2 Cl dxz                6      1.189225  1 Na px         
    35      1.154511  1 Na fxzz              59     -0.907377  2 Cl dxz        
    30     -0.737310  1 Na fxxx              33     -0.737414  1 Na fxyy       

 Vector   65  Occ=0.000000D+00  E= 2.103015D+00  Symmetry=e
              MO Center=  1.4D-17, -5.4D-17,  4.8D-01, r^2= 9.8D-01
   Bfn.  Coefficient  Atom+Function         Bfn.  Coefficient  Atom+Function  
  ----- ------------  ---------------      ----- ------------  ---------------
    72      2.320721  2 Cl fxyy              69     -0.773502  2 Cl fxxx       
    70     -0.584307  2 Cl fxxy              33     -0.344139  1 Na fxyy       
    75      0.194751  2 Cl fyyy              30      0.114817  1 Na fxxx       
    31      0.086647  1 Na fxxy              36     -0.028908  1 Na fyyy       

 Vector   66  Occ=0.000000D+00  E= 2.103015D+00  Symmetry=e
              MO Center= -1.4D-16, -3.5D-17,  4.8D-01, r^2= 9.8D-01
   Bfn.  Coefficient  Atom+Function         Bfn.  Coefficient  Atom+Function  
  ----- ------------  ---------------      ----- ------------  ---------------
    70      2.320721  2 Cl fxxy              75     -0.773502  2 Cl fyyy       
    72      0.584307  2 Cl fxyy              31     -0.344139  1 Na fxxy       
    69     -0.194751  2 Cl fxxx              36      0.114817  1 Na fyyy       
    33     -0.086647  1 Na fxyy              30      0.028908  1 Na fxxx       

 Vector   67  Occ=0.000000D+00  E= 2.189884D+00  Symmetry=b1
              MO Center= -3.8D-18,  5.9D-18,  3.9D-01, r^2= 1.3D+00
   Bfn.  Coefficient  Atom+Function         Bfn.  Coefficient  Atom+Function  
  ----- ------------  ---------------      ----- ------------  ---------------
    71      1.311829  2 Cl fxxz              76     -1.311829  2 Cl fyyz       
    63     -0.958556  2 Cl dxx               66      0.958556  2 Cl dyy        
    57      0.874889  2 Cl dxx               60     -0.874889  2 Cl dyy        
    32      0.718905  1 Na fxxz              37     -0.718905  1 Na fyyz       
    18      0.489349  1 Na dxx               21     -0.489349  1 Na dyy        

 Vector   68  Occ=0.000000D+00  E= 2.189912D+00  Symmetry=b2
              MO Center=  3.8D-15, -4.0D-15,  3.9D-01, r^2= 1.3D+00
   Bfn.  Coefficient  Atom+Function         Bfn.  Coefficient  Atom+Function  
  ----- ------------  ---------------      ----- ------------  ---------------
    73      2.623595  2 Cl fxyz              64     -1.917143  2 Cl dxy        
    58      1.749806  2 Cl dxy               34      1.437829  1 Na fxyz       
    19      0.978699  1 Na dxy               25     -0.348665  1 Na dxy        

 Vector   69  Occ=0.000000D+00  E= 2.238271D+00  Symmetry=a1
              MO Center= -6.3D-17,  3.6D-17,  8.7D-02, r^2= 4.1D+00
   Bfn.  Coefficient  Atom+Function         Bfn.  Coefficient  Atom+Function  
  ----- ------------  ---------------      ----- ------------  ---------------
    44     32.603167  2 Cl s                  3    -19.861744  1 Na s          
    11    -13.160461  1 Na pz                 8     -7.376245  1 Na pz         
    63     -6.426178  2 Cl dxx               66     -6.426178  2 Cl dyy        
    56     -5.537160  2 Cl pz                43     -4.363904  2 Cl s          
    68     -4.377542  2 Cl dzz                2     -4.077506  1 Na s          

 Vector   70  Occ=0.000000D+00  E= 2.306799D+00  Symmetry=e
              MO Center=  9.2D-17,  6.7D-17,  3.6D-01, r^2= 1.4D+00
   Bfn.  Coefficient  Atom+Function         Bfn.  Coefficient  Atom+Function  
  ----- ------------  ---------------      ----- ------------  ---------------
    10      3.716206  1 Na py                 9      2.724219  1 Na px         
    67      2.424210  2 Cl dyz               22      2.264859  1 Na dyz        
     7      2.223387  1 Na py                65      1.777103  2 Cl dxz        
    61     -1.718754  2 Cl dyz               55     -1.708123  2 Cl py         
    20      1.660288  1 Na dxz                6      1.629886  1 Na px         

 Vector   71  Occ=0.000000D+00  E= 2.306799D+00  Symmetry=e
              MO Center= -1.6D-16,  2.0D-16,  3.6D-01, r^2= 1.4D+00
   Bfn.  Coefficient  Atom+Function         Bfn.  Coefficient  Atom+Function  
  ----- ------------  ---------------      ----- ------------  ---------------
     9      3.716206  1 Na px                10     -2.724219  1 Na py         
    65      2.424210  2 Cl dxz               20      2.264859  1 Na dxz        
     6      2.223387  1 Na px                67     -1.777103  2 Cl dyz        
    59     -1.718754  2 Cl dxz               54     -1.708123  2 Cl px         
    22     -1.660288  1 Na dyz                7     -1.629886  1 Na py         

 Vector   72  Occ=0.000000D+00  E= 2.969103D+00  Symmetry=a1
              MO Center=  1.8D-17,  1.3D-17, -1.1D-01, r^2= 1.8D+00
   Bfn.  Coefficient  Atom+Function         Bfn.  Coefficient  Atom+Function  
  ----- ------------  ---------------      ----- ------------  ---------------
    50      6.308032  2 Cl pz                44      5.258648  2 Cl s          
     4      4.233976  1 Na s                 68     -3.757920  2 Cl dzz        
    71     -3.464828  2 Cl fxxz              76     -3.464828  2 Cl fyyz       
     3     -3.260078  1 Na s                 47      3.142973  2 Cl pz         
    39     -2.473322  1 Na fzzz              11      2.456975  1 Na pz         

 Vector   73  Occ=0.000000D+00  E= 3.789301D+00  Symmetry=a1
              MO Center= -8.5D-18, -3.6D-17, -1.2D-01, r^2= 3.5D+00
   Bfn.  Coefficient  Atom+Function         Bfn.  Coefficient  Atom+Function  
  ----- ------------  ---------------      ----- ------------  ---------------
     3     34.921755  1 Na s                 44    -25.399736  2 Cl s          
    11     16.737516  1 Na pz                 2     10.707628  1 Na s          
     8      9.528339  1 Na pz                18     -6.970690  1 Na dxx        
    21     -6.970690  1 Na dyy               24     -5.726384  1 Na dxx        
    27     -5.726384  1 Na dyy               29     -5.742748  1 Na dzz        

 Vector   74  Occ=0.000000D+00  E= 4.160118D+00  Symmetry=e
              MO Center=  6.0D-20,  2.2D-18,  4.8D-01, r^2= 1.5D+00
   Bfn.  Coefficient  Atom+Function         Bfn.  Coefficient  Atom+Function  
  ----- ------------  ---------------      ----- ------------  ---------------
    48      7.761995  2 Cl px                49      6.552142  2 Cl py         
    69     -3.948470  2 Cl fxxx              72     -3.948472  2 Cl fxyy       
    74     -3.824902  2 Cl fxzz              45      3.328139  2 Cl px         
    70     -3.333028  2 Cl fxxy              75     -3.333026  2 Cl fyyy       
    77     -3.228719  2 Cl fyzz              46      2.809386  2 Cl py         

 Vector   75  Occ=0.000000D+00  E= 4.160118D+00  Symmetry=e
              MO Center=  4.6D-17,  2.9D-17,  4.8D-01, r^2= 1.5D+00
   Bfn.  Coefficient  Atom+Function         Bfn.  Coefficient  Atom+Function  
  ----- ------------  ---------------      ----- ------------  ---------------
    49      7.761995  2 Cl py                48     -6.552142  2 Cl px         
    70     -3.948472  2 Cl fxxy              75     -3.948470  2 Cl fyyy       
    77     -3.824902  2 Cl fyzz              46      3.328139  2 Cl py         
    69      3.333026  2 Cl fxxx              72      3.333028  2 Cl fxyy       
    74      3.228719  2 Cl fxzz              45     -2.809386  2 Cl px         

 Vector   76  Occ=0.000000D+00  E= 4.366040D+00  Symmetry=a1
              MO Center=  3.3D-19, -1.1D-17,  4.7D-01, r^2= 2.5D+00
   Bfn.  Coefficient  Atom+Function         Bfn.  Coefficient  Atom+Function  
  ----- ------------  ---------------      ----- ------------  ---------------
     3     25.756262  1 Na s                 44    -15.699420  2 Cl s          
    11     15.561299  1 Na pz                50     15.085143  2 Cl pz         
     8      8.585373  1 Na pz                 2      7.449783  1 Na s          
    47      6.841128  2 Cl pz                78     -6.442352  2 Cl fzzz       
    71     -6.305434  2 Cl fxxz              76     -6.305434  2 Cl fyyz       

 Vector   77  Occ=0.000000D+00  E= 5.358097D+00  Symmetry=a1
              MO Center= -5.9D-18,  6.8D-18,  4.6D-01, r^2= 1.8D+00
   Bfn.  Coefficient  Atom+Function         Bfn.  Coefficient  Atom+Function  
  ----- ------------  ---------------      ----- ------------  ---------------
    42     13.144180  2 Cl s                 41     10.192738  2 Cl s          
    43     -7.899332  2 Cl s                 44      7.084842  2 Cl s          
    68     -5.316093  2 Cl dzz               63     -4.885757  2 Cl dxx        
    66     -4.885757  2 Cl dyy                3      4.312833  1 Na s          
    11      3.459124  1 Na pz                57     -3.135783  2 Cl dxx        

 Vector   78  Occ=0.000000D+00  E= 8.684095D+00  Symmetry=a1
              MO Center=  1.8D-18, -1.2D-18,  4.9D-01, r^2= 1.2D+00
   Bfn.  Coefficient  Atom+Function         Bfn.  Coefficient  Atom+Function  
  ----- ------------  ---------------      ----- ------------  ---------------
    44     19.908827  2 Cl s                 42     17.844728  2 Cl s          
    41      9.770363  2 Cl s                  3     -7.391666  1 Na s          
    57     -7.131827  2 Cl dxx               60     -7.131827  2 Cl dyy        
    62     -7.117253  2 Cl dzz               68     -7.105253  2 Cl dzz        
    63     -6.992369  2 Cl dxx               66     -6.992369  2 Cl dyy        


------------------------------------------------------------
EAF file 0: "./nacl_cc-pvtz.aoints.0" size=2097152 bytes
------------------------------------------------------------
               write      read    awrite     aread      wait
               -----      ----    ------     -----      ----
     calls:        4         7         0        21        21
   data(b): 2.10e+06  3.67e+06  0.00e+00  1.10e+07
   time(s): 0.00e+00  0.00e+00  0.00e+00  0.00e+00  0.00e+00
rate(mb/s): 0.00e+00  0.00e+00
------------------------------------------------------------


 center of mass
 --------------
 x =   0.00000000 y =   0.00000000 z =  -0.00911367

 moments of inertia (a.u.)
 ------------------
          79.721070261053           0.000000000000           0.000000000000
           0.000000000000          79.721070261053           0.000000000000
           0.000000000000           0.000000000000           0.000000000000

     Multipole analysis of the density
     ---------------------------------

     L   x y z        total         alpha         beta         nuclear
     -   - - -        -----         -----         ----         -------
     0   0 0 0     -0.000000    -14.000000    -14.000000     28.000000

     1   1 0 0      0.000000      0.000000      0.000000      0.000000
     1   0 1 0      0.000000      0.000000      0.000000      0.000000
     1   0 0 1     -1.395985     -0.697993     -0.697993      0.000000

     2   2 0 0    -15.062811     -7.531405     -7.531405      0.000000
     2   1 1 0     -0.000000     -0.000000     -0.000000      0.000000
     2   1 0 1      0.000000      0.000000      0.000000      0.000000
     2   0 2 0    -15.062811     -7.531405     -7.531405      0.000000
     2   0 1 1      0.000000      0.000000      0.000000      0.000000
     2   0 0 2    -14.302824    -26.343774    -26.343774     38.384723


 Parallel integral file used      30 records with       0 large values


 Task  times  cpu:        7.2s     wall:        7.2s
 Summary of allocated global arrays
-----------------------------------
  No active global arrays



                         GA Statistics for process    0
                         ------------------------------

       create   destroy   get      put      acc     scatter   gather  read&inc
calls:  246      246     1.36e+04 5365     1554        0        0      507     
number of processes/call 0.00e+00 0.00e+00 0.00e+00 0.00e+00 0.00e+00
bytes total:             3.89e+07 1.20e+07 2.38e+07 0.00e+00 0.00e+00 4.06e+03
bytes remote:            0.00e+00 0.00e+00 0.00e+00 0.00e+00 0.00e+00 0.00e+00
Max memory consumed for GA by this process: 1898208 bytes
MA_summarize_allocated_blocks: starting scan ...
MA_summarize_allocated_blocks: scan completed: 0 heap blocks, 0 stack blocks
MA usage statistics:

	allocation statistics:
					      heap	     stack
					      ----	     -----
	current number of blocks	         0	         0
	maximum number of blocks	        22	        57
	current total bytes		         0	         0
	maximum total bytes		  17503344	  22512872
	maximum total K-bytes		     17504	     22513
	maximum total M-bytes		        18	        23


                                NWChem Input Module
                                -------------------





                                     CITATION
                                     --------
                Please cite the following reference when publishing
                           results obtained with NWChem:

                 M. Valiev, E.J. Bylaska, N. Govind, K. Kowalski,
              T.P. Straatsma, H.J.J. van Dam, D. Wang, J. Nieplocha,
                        E. Apra, T.L. Windus, W.A. de Jong
                 "NWChem: a comprehensive and scalable open-source
                  solution for large scale molecular simulations"
                      Comput. Phys. Commun. 181, 1477 (2010)
                           doi:10.1016/j.cpc.2010.04.018

                                      AUTHORS
                                      -------
     E. Apra, E. J. Bylaska, N. Govind, K. Kowalski, M. Valiev, W. A. de Jong,
      T. P. Straatsma, H. J. J. van Dam, D. Wang, T. L. Windus, N. P. Bauman,
       A. Panyala, J. Hammond, J. Autschbach, K. Bhaskaran-Nair, J. Brabec,
    K. Lopata, S. A. Fischer, S. Krishnamoorthy, M. Jacquelin, W. Ma, M. Klemm,
       O. Villa, Y. Chen, V. Anisimov, F. Aquino, S. Hirata, M. T. Hackler,
           Eric Hermes, L. Jensen, J. E. Moore, J. C. Becca, V. Konjkov,
            D. Mejia-Rodriguez, T. Risthaus, M. Malagoli, A. Marenich,
   A. Otero-de-la-Roza, J. Mullin, P. Nichols, R. Peverati, J. Pittner, Y. Zhao,
        P.-D. Fan, A. Fonari, M. J. Williamson, R. J. Harrison, J. R. Rehr,
      M. Dupuis, D. Silverstein, D. M. A. Smith, J. Nieplocha, V. Tipparaju,
      M. Krishnan, B. E. Van Kuiken, A. Vazquez-Mayagoitia, M. Swart, Q. Wu,
   T. Van Voorhis, A. A. Auer, M. Nooijen, L. D. Crosby, E. Brown, G. Cisneros,
     G. I. Fann, H. Fruchtl, J. Garza, K. Hirao, R. A. Kendall, J. A. Nichols,
       K. Tsemekhman, K. Wolinski, J. Anchell, D. E. Bernholdt, P. Borowski,
       T. Clark, D. Clerc, H. Dachsel, M. J. O. Deegan, K. Dyall, D. Elwood,
      E. Glendening, M. Gutowski, A. C. Hess, J. Jaffe, B. G. Johnson, J. Ju,
        R. Kobayashi, R. Kutteh, Z. Lin, R. Littlefield, X. Long, B. Meng,
      T. Nakajima, S. Niu, L. Pollack, M. Rosing, K. Glaesemann, G. Sandrone,
      M. Stave, H. Taylor, G. Thomas, J. H. van Lenthe, A. T. Wong, Z. Zhang.

 Total times  cpu:        7.3s     wall:        7.3s
