 argument  1 = nacl_aug-cc-pvdz.inp
                                         
                                         


             Northwest Computational Chemistry Package (NWChem) 7.0.0
             --------------------------------------------------------


                    Environmental Molecular Sciences Laboratory
                       Pacific Northwest National Laboratory
                                Richland, WA 99352

                              Copyright (c) 1994-2019
                       Pacific Northwest National Laboratory
                            Battelle Memorial Institute

             NWChem is an open-source computational chemistry package
                        distributed under the terms of the
                      Educational Community License (ECL) 2.0
             A copy of the license is included with this distribution
                              in the LICENSE.TXT file

                                  ACKNOWLEDGMENT
                                  --------------

            This software and its documentation were developed at the
            EMSL at Pacific Northwest National Laboratory, a multiprogram
            national laboratory, operated for the U.S. Department of Energy
            by Battelle under Contract Number DE-AC05-76RL01830. Support
            for this work was provided by the Department of Energy Office
            of Biological and Environmental Research, Office of Basic
            Energy Sciences, and the Office of Advanced Scientific Computing.


           Job information
           ---------------

    hostname        = Amanda-Dewyers-MacBook-Air.local
    program         = nwchem
    date            = Fri Sep 11 17:06:49 2020

    compiled        = Fri_Jul_03_06:05:09_2020
    source          = /private/tmp/nwchem-20200703-71421-tc8c0i/nwchem-7.0.0
    nwchem branch   = 7.0.0
    nwchem revision = 2c9a1c7c
    ga revision     = 5.7.1
    use scalapack   = T
    input           = nacl_aug-cc-pvdz.inp
    prefix          = nacl_aug-cc-pvdz.
    data base       = ./nacl_aug-cc-pvdz.db
    status          = startup
    nproc           =        1
    time left       =     -1s



           Memory information
           ------------------

    heap     =   13107196 doubles =    100.0 Mbytes
    stack    =   13107201 doubles =    100.0 Mbytes
    global   =   26214400 doubles =    200.0 Mbytes (distinct from heap & stack)
    total    =   52428797 doubles =    400.0 Mbytes
    verify   = yes
    hardfail = no 


           Directory information
           ---------------------

  0 permanent = .
  0 scratch   = .




                                NWChem Input Module
                                -------------------


                                     test case
                                     ---------
 ORDER OF PRIMARY AXIS IS BEING SET TO 4
 C4V symmetry detected

          ------
          auto-z
          ------
  no constraints, skipping    0.0000000000000000     
  no constraints, skipping    0.0000000000000000     


                             Geometry "geometry" -> ""
                             -------------------------

 Output coordinates in a.u. (scale by  1.000000000 to convert to a.u.)

  No.       Tag          Charge          X              Y              Z
 ---- ---------------- ---------- -------------- -------------- --------------
    1 Na                  11.0000     0.00000000     0.00000000    -1.45555396
    2 Cl                  17.0000     0.00000000     0.00000000     0.94182903

      Atomic Mass 
      ----------- 

      Na                22.989800
      Cl                34.968850


 Effective nuclear repulsion energy (a.u.)      78.0017214429

            Nuclear Dipole moment (a.u.) 
            ----------------------------
        X                 Y               Z
 ---------------- ---------------- ----------------
     0.0000000000     0.0000000000     0.0000000000

      Symmetry information
      --------------------

 Group name             C4v       
 Group number             18
 Group order               8
 No. of unique centers     2

      Symmetry unique atoms

     1    2



                                Z-matrix (autoz)
                                -------- 

 Units are Angstrom for bonds and degrees for angles

      Type          Name      I     J     K     L     M      Value
      ----------- --------  ----- ----- ----- ----- ----- ----------
    1 Stretch                  1     2                       1.26864


            XYZ format geometry
            -------------------
     2
 geometry
 Na                    0.00000000     0.00000000    -0.77024604
 Cl                    0.00000000     0.00000000     0.49839450

 ==============================================================================
                                internuclear distances
 ------------------------------------------------------------------------------
       center one      |      center two      | atomic units |       a.u.
 ------------------------------------------------------------------------------
    2 Cl               |   1 Na               |     2.39738  |     2.39738
 ------------------------------------------------------------------------------
                         number of included internuclear distances:          1
 ==============================================================================



  library name resolved from: .nwchemrc
  library file name is: </usr/local/Cellar/nwchem/7.0.0_2/share/nwchem/libraries/>
  


 Summary of "ao basis" -> "" (cartesian)
 ------------------------------------------------------------------------------
       Tag                 Description            Shells   Functions and Types
 ---------------- ------------------------------  ------  ---------------------
 *                        aug-cc-pvdz                 on all atoms 



                                 NWChem DFT Module
                                 -----------------


                                     test case


                      Basis "ao basis" -> "ao basis" (cartesian)
                      -----
  Na (Sodium)
  -----------
            Exponent  Coefficients 
       -------------- ---------------------------------------------------------
  1 S  3.17000000E+04  0.000459
  1 S  4.75500000E+03  0.003551
  1 S  1.08200000E+03  0.018262
  1 S  3.06400000E+02  0.071665
  1 S  9.95300000E+01  0.212346
  1 S  3.54200000E+01  0.416203
  1 S  1.33000000E+01  0.373020
  1 S  4.39200000E+00  0.062505
  1 S  1.67600000E+00 -0.006245
  1 S  5.88900000E-01  0.002434
  1 S  5.64000000E-02 -0.000442

  2 S  3.17000000E+04 -0.000112
  2 S  4.75500000E+03 -0.000869
  2 S  1.08200000E+03 -0.004513
  2 S  3.06400000E+02 -0.018144
  2 S  9.95300000E+01 -0.058080
  2 S  3.54200000E+01 -0.137653
  2 S  1.33000000E+01 -0.193908
  2 S  4.39200000E+00  0.085801
  2 S  1.67600000E+00  0.604419
  2 S  5.88900000E-01  0.441719
  2 S  5.64000000E-02  0.013055

  3 S  3.17000000E+04  0.000017
  3 S  4.75500000E+03  0.000131
  3 S  1.08200000E+03  0.000688
  3 S  3.06400000E+02  0.002724
  3 S  9.95300000E+01  0.008955
  3 S  3.54200000E+01  0.020783
  3 S  1.33000000E+01  0.031938
  3 S  4.39200000E+00 -0.019137
  3 S  1.67600000E+00 -0.102595
  3 S  5.88900000E-01 -0.198945
  3 S  5.64000000E-02  0.655952

  4 S  2.30700000E-02  1.000000

  5 S  7.25000000E-03  1.000000

  6 P  1.38100000E+02  0.005796
  6 P  3.22400000E+01  0.041576
  6 P  9.98500000E+00  0.162873
  6 P  3.48400000E+00  0.359401
  6 P  1.23100000E+00  0.449988
  6 P  4.17700000E-01  0.227507
  6 P  6.51300000E-02  0.008082

  7 P  1.38100000E+02 -0.000582
  7 P  3.22400000E+01 -0.004073
  7 P  9.98500000E+00 -0.016794
  7 P  3.48400000E+00 -0.035327
  7 P  1.23100000E+00 -0.052197
  7 P  4.17700000E-01 -0.016836
  7 P  6.51300000E-02  0.434613

  8 P  2.05300000E-02  1.000000

  9 P  6.33000000E-03  1.000000

 10 D  9.73000000E-02  1.000000

 11 D  4.68000000E-02  1.000000

  Cl (Chlorine)
  -------------
            Exponent  Coefficients 
       -------------- ---------------------------------------------------------
  1 S  1.27900000E+05  0.000241
  1 S  1.91700000E+04  0.001871
  1 S  4.36300000E+03  0.009708
  1 S  1.23600000E+03  0.039315
  1 S  4.03600000E+02  0.125932
  1 S  1.45700000E+02  0.299341
  1 S  5.68100000E+01  0.421886
  1 S  2.32300000E+01  0.237201
  1 S  6.64400000E+00  0.019153
  1 S  2.57500000E+00 -0.003348
  1 S  5.37100000E-01  0.000930

  2 S  1.27900000E+05 -0.000068
  2 S  1.91700000E+04 -0.000522
  2 S  4.36300000E+03 -0.002765
  2 S  1.23600000E+03 -0.011154
  2 S  4.03600000E+02 -0.038592
  2 S  1.45700000E+02 -0.099485
  2 S  5.68100000E+01 -0.201392
  2 S  2.32300000E+01 -0.130313
  2 S  6.64400000E+00  0.509443
  2 S  2.57500000E+00  0.610725
  2 S  5.37100000E-01  0.042155

  3 S  1.27900000E+05  0.000020
  3 S  1.91700000E+04  0.000158
  3 S  4.36300000E+03  0.000834
  3 S  1.23600000E+03  0.003399
  3 S  4.03600000E+02  0.011674
  3 S  1.45700000E+02  0.030962
  3 S  5.68100000E+01  0.062953
  3 S  2.32300000E+01  0.046026
  3 S  6.64400000E+00 -0.219312
  3 S  2.57500000E+00 -0.408773
  3 S  5.37100000E-01  0.638465

  4 S  1.93800000E-01  1.000000

  5 S  6.08000000E-02  1.000000

  6 P  4.17600000E+02  0.005260
  6 P  9.83300000E+01  0.039833
  6 P  3.10400000E+01  0.164655
  6 P  1.11900000E+01  0.387322
  6 P  4.24900000E+00  0.457072
  6 P  1.62400000E+00  0.151636
  6 P  5.32200000E-01  0.001816

  7 P  4.17600000E+02 -0.001436
  7 P  9.83300000E+01 -0.010780
  7 P  3.10400000E+01 -0.047008
  7 P  1.11900000E+01 -0.111030
  7 P  4.24900000E+00 -0.153275
  7 P  1.62400000E+00  0.089461
  7 P  5.32200000E-01  0.579444

  8 P  1.62000000E-01  1.000000

  9 P  4.66000000E-02  1.000000

 10 D  6.00000000E-01  1.000000

 11 D  1.96000000E-01  1.000000



 Summary of "ao basis" -> "ao basis" (cartesian)
 ------------------------------------------------------------------------------
       Tag                 Description            Shells   Functions and Types
 ---------------- ------------------------------  ------  ---------------------
 Na                       aug-cc-pvdz               11       29   5s4p2d
 Cl                       aug-cc-pvdz               11       29   5s4p2d




 Summary of "ao basis" -> "ao basis" (cartesian)
 ------------------------------------------------------------------------------
       Tag                 Description            Shells   Functions and Types
 ---------------- ------------------------------  ------  ---------------------
 Na                       aug-cc-pvdz               11       29   5s4p2d
 Cl                       aug-cc-pvdz               11       29   5s4p2d


      Symmetry analysis of basis
      --------------------------

        a1         26
        a2          0
        b1          4
        b2          4
        e          24

  Caching 1-el integrals 

            General Information
            -------------------
          SCF calculation type: DFT
          Wavefunction type:  closed shell.
          No. of atoms     :     2
          No. of electrons :    28
           Alpha electrons :    14
            Beta electrons :    14
          Charge           :     0
          Spin multiplicity:     1
          Use of symmetry is: on ; symmetry adaption is: on 
          Maximum number of iterations:  30
          AO basis - number of functions:    58
                     number of shells:    22
          Convergence on energy requested:  1.00D-06
          Convergence on density requested:  1.00D-05
          Convergence on gradient requested:  5.00D-04

              XC Information
              --------------
                         B3LYP Method XC Potential
                     Hartree-Fock (Exact) Exchange  0.200          
                        Slater Exchange Functional  0.800 local    
                    Becke 1988 Exchange Functional  0.720 non-local
              Lee-Yang-Parr Correlation Functional  0.810          
                  VWN I RPA Correlation Functional  0.190 local    

             Grid Information
             ----------------
          Grid used for XC integration:  medium    
          Radial quadrature: Mura-Knowles        
          Angular quadrature: Lebedev. 
          Tag              B.-S. Rad. Rad. Pts. Rad. Cut. Ang. Pts.
          ---              ---------- --------- --------- ---------
          Na                  1.80       88          20.0       434
          Cl                  1.00       88          13.0       590
          Grid pruning is: on 
          Number of quadrature shells:   176
          Spatial weights used:  Erf1

          Convergence Information
          -----------------------
          Convergence aids based upon iterative change in 
          total energy or number of iterations. 
          Levelshifting, if invoked, occurs when the 
          HOMO/LUMO gap drops below (HL_TOL):  1.00D-02
          DIIS, if invoked, will attempt to extrapolate 
          using up to (NFOCK): 10 stored Fock matrices.

                    Damping( 0%)  Levelshifting(0.5)       DIIS
                  --------------- ------------------- ---------------
          dE  on:    start            ASAP                start   
          dE off:    2 iters         30 iters            30 iters 


      Screening Tolerance Information
      -------------------------------
          Density screening/tol_rho:  1.00D-10
          AO Gaussian exp screening on grid/accAOfunc:  14
          CD Gaussian exp screening on grid/accCDfunc:  20
          XC Gaussian exp screening on grid/accXCfunc:  20
          Schwarz screening/accCoul:  1.00D-08


      Superposition of Atomic Density Guess
      -------------------------------------

 Sum of atomic energies:        -621.32914666

      Non-variational initial energy
      ------------------------------

 Total energy =    -622.356882
 1-e energy   =   -1015.063282
 2-e energy   =     314.704679
 HOMO         =      -0.237069
 LUMO         =      -0.026628


      Symmetry analysis of molecular orbitals - initial
      -------------------------------------------------

  Numbering of irreducible representations: 

     1 a1          2 a2          3 b1          4 b2          5 e       

  Orbital symmetries:

     1 a1          2 a1          3 a1          4 a1          5 e       
     6 e           7 a1          8 a1          9 e          10 e       
    11 a1         12 e          13 e          14 a1         15 a1      
    16 e          17 e          18 a1         19 a1         20 e       
    21 e          22 a1         23 a1         24 b1      

   Time after variat. SCF:      1.6
   Time prior to 1st pass:      1.6

 Integral file          = ./nacl_aug-cc-pvdz.aoints.0
 Record size in doubles =  65536        No. of integs per rec  =  43688
 Max. records in memory =      9        Max. records in file   = 183514
 No. of bits per label  =      8        No. of bits per value  =     64


 #quartets = 3.213D+04 #integrals = 4.096D+05 #direct =  0.0% #cached =100.0%


 Grid_pts file          = ./nacl_aug-cc-pvdz.gridpts.0
 Record size in doubles =  12289        No. of grid_pts per rec  =   3070
 Max. records in memory =     39        Max. recs in file   =    978669


           Memory utilization after 1st SCF pass: 
           Heap Space remaining (MW):       12.03            12034532
          Stack Space remaining (MW):       13.11            13106780

   convergence    iter        energy       DeltaE   RMS-Dens  Diis-err    time
 ---------------- ----- ----------------- --------- --------- ---------  ------
 d= 0,ls=0.0,diis     1   -621.7099722498 -7.00D+02  4.91D-02  4.83D-01     3.4
 d= 0,ls=0.0,diis     2   -621.6508867994  5.91D-02  3.09D-02  5.82D-01     3.4
 d= 0,ls=0.0,diis     3   -621.7451514657 -9.43D-02  9.07D-03  6.61D-02     3.5
 d= 0,ls=0.0,diis     4   -621.7563545310 -1.12D-02  1.83D-03  3.88D-03     3.6
 d= 0,ls=0.0,diis     5   -621.7568944294 -5.40D-04  3.60D-04  1.43D-05     3.6
  Resetting Diis
 d= 0,ls=0.0,diis     6   -621.7568960031 -1.57D-06  9.16D-05  5.16D-06     3.7
 d= 0,ls=0.0,diis     7   -621.7568969926 -9.89D-07  2.66D-05  9.86D-08     3.8
 d= 0,ls=0.0,diis     8   -621.7568969698  2.28D-08  1.45D-05  2.34D-07     3.8
 d= 0,ls=0.0,diis     9   -621.7568970084 -3.86D-08  1.08D-06  4.65D-10     3.9


         Total DFT energy =     -621.756897008414
      One electron energy =    -1015.725586111004
           Coulomb energy =      359.001895608102
    Exchange-Corr. energy =      -43.034927948440
 Nuclear repulsion energy =       78.001721442928

 Numeric. integr. density =       28.000010691344

     Total iterative time =      2.3s



                  Occupations of the irreducible representations
                  ----------------------------------------------

                     irrep           alpha         beta
                     --------     --------     --------
                     a1                8.0          8.0
                     a2                0.0          0.0
                     b1                0.0          0.0
                     b2                0.0          0.0
                     e                 6.0          6.0


                       DFT Final Molecular Orbital Analysis
                       ------------------------------------

 Vector    1  Occ=2.000000D+00  E=-1.015499D+02  Symmetry=a1
              MO Center= -9.7D-31, -7.0D-31,  5.0D-01, r^2= 3.1D-03
   Bfn.  Coefficient  Atom+Function         Bfn.  Coefficient  Atom+Function  
  ----- ------------  ---------------      ----- ------------  ---------------
    30      1.000585  2 Cl s          

 Vector    2  Occ=2.000000D+00  E=-3.861708D+01  Symmetry=a1
              MO Center=  3.0D-21,  5.0D-22, -7.7D-01, r^2= 7.7D-03
   Bfn.  Coefficient  Atom+Function         Bfn.  Coefficient  Atom+Function  
  ----- ------------  ---------------      ----- ------------  ---------------
     1      1.001407  1 Na s                  3      0.028855  1 Na s          
    34     -0.026295  2 Cl s          

 Vector    3  Occ=2.000000D+00  E=-9.486725D+00  Symmetry=a1
              MO Center=  1.2D-16,  4.4D-17,  4.9D-01, r^2= 6.6D-02
   Bfn.  Coefficient  Atom+Function         Bfn.  Coefficient  Atom+Function  
  ----- ------------  ---------------      ----- ------------  ---------------
    31      1.004162  2 Cl s                 33      0.029560  2 Cl s          

 Vector    4  Occ=2.000000D+00  E=-7.254769D+00  Symmetry=a1
              MO Center=  9.1D-17,  1.1D-17,  5.0D-01, r^2= 5.8D-02
   Bfn.  Coefficient  Atom+Function         Bfn.  Coefficient  Atom+Function  
  ----- ------------  ---------------      ----- ------------  ---------------
    37      1.001063  2 Cl pz         

 Vector    5  Occ=2.000000D+00  E=-7.231604D+00  Symmetry=e
              MO Center= -1.8D-16, -2.7D-17,  5.0D-01, r^2= 5.8D-02
   Bfn.  Coefficient  Atom+Function         Bfn.  Coefficient  Atom+Function  
  ----- ------------  ---------------      ----- ------------  ---------------
    35      0.993422  2 Cl px                36      0.121050  2 Cl py         

 Vector    6  Occ=2.000000D+00  E=-7.231604D+00  Symmetry=e
              MO Center=  2.6D-17, -4.3D-17,  5.0D-01, r^2= 5.8D-02
   Bfn.  Coefficient  Atom+Function         Bfn.  Coefficient  Atom+Function  
  ----- ------------  ---------------      ----- ------------  ---------------
    36      0.993422  2 Cl py                35     -0.121050  2 Cl px         

 Vector    7  Occ=2.000000D+00  E=-2.466791D+00  Symmetry=a1
              MO Center= -2.1D-16,  2.5D-16, -6.9D-01, r^2= 2.2D-01
   Bfn.  Coefficient  Atom+Function         Bfn.  Coefficient  Atom+Function  
  ----- ------------  ---------------      ----- ------------  ---------------
     2      0.957574  1 Na s                 34      0.127749  2 Cl s          
     8      0.099331  1 Na pz                23     -0.071275  1 Na dzz        
    40     -0.070275  2 Cl pz                11     -0.067940  1 Na pz         
    32      0.064298  2 Cl s                 43      0.059163  2 Cl pz         
    52      0.043937  2 Cl dzz               58     -0.043365  2 Cl dzz        

 Vector    8  Occ=2.000000D+00  E=-1.462950D+00  Symmetry=a1
              MO Center= -3.9D-17,  9.2D-17, -7.6D-01, r^2= 3.1D-01
   Bfn.  Coefficient  Atom+Function         Bfn.  Coefficient  Atom+Function  
  ----- ------------  ---------------      ----- ------------  ---------------
     8      0.871043  1 Na pz                 2     -0.210398  1 Na s          
    34      0.167677  2 Cl s                 32      0.163620  2 Cl s          
    40     -0.143773  2 Cl pz                23     -0.112886  1 Na dzz        
    43      0.104492  2 Cl pz                11     -0.091800  1 Na pz         
    58     -0.077609  2 Cl dzz               52      0.064396  2 Cl dzz        

 Vector    9  Occ=2.000000D+00  E=-1.333181D+00  Symmetry=e
              MO Center= -4.5D-16, -8.0D-16, -7.5D-01, r^2= 2.5D-01
   Bfn.  Coefficient  Atom+Function         Bfn.  Coefficient  Atom+Function  
  ----- ------------  ---------------      ----- ------------  ---------------
     7      0.987307  1 Na py                 6      0.085917  1 Na px         
    51     -0.073014  2 Cl dyz               39      0.056864  2 Cl py         

 Vector   10  Occ=2.000000D+00  E=-1.333181D+00  Symmetry=e
              MO Center=  4.0D-16, -5.7D-17, -7.5D-01, r^2= 2.5D-01
   Bfn.  Coefficient  Atom+Function         Bfn.  Coefficient  Atom+Function  
  ----- ------------  ---------------      ----- ------------  ---------------
     6      0.987307  1 Na px                 7     -0.085917  1 Na py         
    49     -0.073014  2 Cl dxz               38      0.056864  2 Cl px         

 Vector   11  Occ=2.000000D+00  E=-7.168614D-01  Symmetry=a1
              MO Center=  4.1D-16,  7.9D-16,  5.5D-01, r^2= 8.7D-01
   Bfn.  Coefficient  Atom+Function         Bfn.  Coefficient  Atom+Function  
  ----- ------------  ---------------      ----- ------------  ---------------
    33      0.592005  2 Cl s                 32      0.514558  2 Cl s          
     3      0.317103  1 Na s                  8     -0.281188  1 Na pz         
    34     -0.246584  2 Cl s                 11      0.148339  1 Na pz         
     2     -0.083057  1 Na s                 46      0.074257  2 Cl pz         
    40      0.070482  2 Cl pz                23      0.050791  1 Na dzz        

 Vector   12  Occ=2.000000D+00  E=-3.414257D-01  Symmetry=e
              MO Center=  1.9D-16, -7.0D-17,  4.2D-01, r^2= 1.2D+00
   Bfn.  Coefficient  Atom+Function         Bfn.  Coefficient  Atom+Function  
  ----- ------------  ---------------      ----- ------------  ---------------
    38      0.561606  2 Cl px                41      0.400885  2 Cl px         
    39     -0.294154  2 Cl py                42     -0.209972  2 Cl py         
     6     -0.204774  1 Na px                 7      0.107255  1 Na py         
    49     -0.097299  2 Cl dxz               55     -0.062471  2 Cl dxz        
    51      0.050962  2 Cl dyz               44      0.043757  2 Cl px         

 Vector   13  Occ=2.000000D+00  E=-3.414257D-01  Symmetry=e
              MO Center= -3.5D-16, -1.1D-15,  4.2D-01, r^2= 1.2D+00
   Bfn.  Coefficient  Atom+Function         Bfn.  Coefficient  Atom+Function  
  ----- ------------  ---------------      ----- ------------  ---------------
    39      0.561606  2 Cl py                42      0.400885  2 Cl py         
    38      0.294154  2 Cl px                41      0.209972  2 Cl px         
     7     -0.204774  1 Na py                 6     -0.107255  1 Na px         
    51     -0.097299  2 Cl dyz               57     -0.062471  2 Cl dyz        
    49     -0.050962  2 Cl dxz               45      0.043757  2 Cl py         

 Vector   14  Occ=2.000000D+00  E=-1.894202D-01  Symmetry=a1
              MO Center=  1.0D-16,  4.7D-16,  2.3D-01, r^2= 2.4D+00
   Bfn.  Coefficient  Atom+Function         Bfn.  Coefficient  Atom+Function  
  ----- ------------  ---------------      ----- ------------  ---------------
     3      0.914498  1 Na s                 34     -0.624380  2 Cl s          
    40     -0.539835  2 Cl pz                43     -0.444376  2 Cl pz         
    11      0.254607  1 Na pz                 8     -0.179734  1 Na pz         
     4      0.097161  1 Na s                  2     -0.067975  1 Na s          
    33     -0.063583  2 Cl s                 52     -0.055310  2 Cl dzz        

 Vector   15  Occ=0.000000D+00  E=-4.736437D-02  Symmetry=a1
              MO Center=  1.4D-15,  4.0D-15, -1.6D+00, r^2= 8.3D+00
   Bfn.  Coefficient  Atom+Function         Bfn.  Coefficient  Atom+Function  
  ----- ------------  ---------------      ----- ------------  ---------------
     4      0.757499  1 Na s                 11     -0.507493  1 Na pz         
    34      0.498210  2 Cl s                 43      0.264910  2 Cl pz         
    40      0.250297  2 Cl pz                33     -0.200505  2 Cl s          
    14     -0.192696  1 Na pz                 5      0.122754  1 Na s          
     8      0.121873  1 Na pz                32     -0.113780  2 Cl s          

 Vector   16  Occ=0.000000D+00  E=-1.996178D-03  Symmetry=e
              MO Center= -7.5D-14, -8.3D-15, -1.2D+00, r^2= 2.8D+01
   Bfn.  Coefficient  Atom+Function         Bfn.  Coefficient  Atom+Function  
  ----- ------------  ---------------      ----- ------------  ---------------
    15      0.514914  1 Na px                12      0.451647  1 Na px         
     9      0.275906  1 Na px                26     -0.188164  1 Na dxz        
    38     -0.105516  2 Cl px                44     -0.090325  2 Cl px         
    16      0.082444  1 Na py                41     -0.081133  2 Cl px         
    13      0.072314  1 Na py                10      0.044176  1 Na py         

 Vector   17  Occ=0.000000D+00  E=-1.996178D-03  Symmetry=e
              MO Center= -2.8D-14, -2.9D-15, -1.2D+00, r^2= 2.8D+01
   Bfn.  Coefficient  Atom+Function         Bfn.  Coefficient  Atom+Function  
  ----- ------------  ---------------      ----- ------------  ---------------
    16      0.514914  1 Na py                13      0.451647  1 Na py         
    10      0.275906  1 Na py                28     -0.188164  1 Na dyz        
    39     -0.105516  2 Cl py                45     -0.090325  2 Cl py         
    15     -0.082444  1 Na px                42     -0.081133  2 Cl py         
    12     -0.072314  1 Na px                 9     -0.044176  1 Na px         

 Vector   18  Occ=0.000000D+00  E= 4.426994D-03  Symmetry=a1
              MO Center=  6.7D-15,  1.2D-14, -1.3D+00, r^2= 4.8D+01
   Bfn.  Coefficient  Atom+Function         Bfn.  Coefficient  Atom+Function  
  ----- ------------  ---------------      ----- ------------  ---------------
    17      0.892810  1 Na pz                 4      0.514018  1 Na s          
     5     -0.219226  1 Na s                 29     -0.178537  1 Na dzz        
    33     -0.158129  2 Cl s                 46      0.079047  2 Cl pz         
    14      0.075923  1 Na pz                32     -0.071452  2 Cl s          
     3      0.044864  1 Na s                 34     -0.041280  2 Cl s          

 Vector   19  Occ=0.000000D+00  E= 8.813089D-03  Symmetry=a1
              MO Center=  1.6D-14, -2.9D-14, -1.3D+00, r^2= 4.6D+01
   Bfn.  Coefficient  Atom+Function         Bfn.  Coefficient  Atom+Function  
  ----- ------------  ---------------      ----- ------------  ---------------
     4      2.259530  1 Na s                  5     -1.708288  1 Na s          
    24     -0.360017  1 Na dxx               27     -0.360017  1 Na dyy        
    34     -0.333194  2 Cl s                 14     -0.288730  1 Na pz         
    29     -0.203428  1 Na dzz               17      0.167868  1 Na pz         
    43      0.155604  2 Cl pz                46      0.125308  2 Cl pz         

 Vector   20  Occ=0.000000D+00  E= 2.149848D-02  Symmetry=e
              MO Center= -2.5D-14,  4.2D-14, -9.6D-01, r^2= 5.8D+01
   Bfn.  Coefficient  Atom+Function         Bfn.  Coefficient  Atom+Function  
  ----- ------------  ---------------      ----- ------------  ---------------
    16     -1.099184  1 Na py                13      1.058700  1 Na py         
    15      0.570304  1 Na px                12     -0.549300  1 Na px         
    45     -0.389770  2 Cl py                10      0.327705  1 Na py         
    44      0.202230  2 Cl px                 9     -0.170028  1 Na px         
    22     -0.097270  1 Na dyz               39     -0.081622  2 Cl py         

 Vector   21  Occ=0.000000D+00  E= 2.149848D-02  Symmetry=e
              MO Center= -7.2D-15,  6.6D-15, -9.6D-01, r^2= 5.8D+01
   Bfn.  Coefficient  Atom+Function         Bfn.  Coefficient  Atom+Function  
  ----- ------------  ---------------      ----- ------------  ---------------
    15     -1.099184  1 Na px                12      1.058700  1 Na px         
    16     -0.570304  1 Na py                13      0.549300  1 Na py         
    44     -0.389770  2 Cl px                 9      0.327705  1 Na px         
    45     -0.202230  2 Cl py                10      0.170028  1 Na py         
    20     -0.097270  1 Na dxz               38     -0.081622  2 Cl px         

 Vector   22  Occ=0.000000D+00  E= 3.216339D-02  Symmetry=a1
              MO Center=  4.1D-14, -4.3D-15,  1.0D+00, r^2= 4.3D+01
   Bfn.  Coefficient  Atom+Function         Bfn.  Coefficient  Atom+Function  
  ----- ------------  ---------------      ----- ------------  ---------------
     4      1.749526  1 Na s                 14      1.462997  1 Na pz         
    17     -1.039572  1 Na pz                34     -1.024092  2 Cl s          
     5     -0.769536  1 Na s                 11      0.228266  1 Na pz         
    33     -0.174765  2 Cl s                 46     -0.149942  2 Cl pz         
    29     -0.127376  1 Na dzz               58      0.104103  2 Cl dzz        

 Vector   23  Occ=0.000000D+00  E= 6.768655D-02  Symmetry=a1
              MO Center=  2.5D-14, -7.4D-15, -3.0D+00, r^2= 2.9D+01
   Bfn.  Coefficient  Atom+Function         Bfn.  Coefficient  Atom+Function  
  ----- ------------  ---------------      ----- ------------  ---------------
     4      6.765550  1 Na s                 34     -3.053805  2 Cl s          
    11      2.032917  1 Na pz                29     -1.570276  1 Na dzz        
     5     -1.550978  1 Na s                 14     -1.233365  1 Na pz         
    46      1.135083  2 Cl pz                24     -1.093960  1 Na dxx        
    27     -1.093960  1 Na dyy               23      0.570471  1 Na dzz        

 Vector   24  Occ=0.000000D+00  E= 7.760777D-02  Symmetry=b1
              MO Center=  1.8D-15,  5.9D-15, -6.9D-01, r^2= 1.1D+01
   Bfn.  Coefficient  Atom+Function         Bfn.  Coefficient  Atom+Function  
  ----- ------------  ---------------      ----- ------------  ---------------
    24      0.904289  1 Na dxx               27     -0.904289  1 Na dyy        
    18     -0.091181  1 Na dxx               21      0.091181  1 Na dyy        
    53      0.073523  2 Cl dxx               56     -0.073523  2 Cl dyy        
    47      0.043461  2 Cl dxx               50     -0.043461  2 Cl dyy        

 Vector   25  Occ=0.000000D+00  E= 7.760784D-02  Symmetry=b2
              MO Center=  1.6D-14, -2.1D-14, -6.9D-01, r^2= 1.1D+01
   Bfn.  Coefficient  Atom+Function         Bfn.  Coefficient  Atom+Function  
  ----- ------------  ---------------      ----- ------------  ---------------
    25      1.808577  1 Na dxy               19     -0.182361  1 Na dxy        
    54      0.147045  2 Cl dxy               48      0.086923  2 Cl dxy        

 Vector   26  Occ=0.000000D+00  E= 8.438557D-02  Symmetry=e
              MO Center= -6.6D-15, -7.4D-15, -3.5D-01, r^2= 2.0D+01
   Bfn.  Coefficient  Atom+Function         Bfn.  Coefficient  Atom+Function  
  ----- ------------  ---------------      ----- ------------  ---------------
    28      2.073325  1 Na dyz               13      1.515236  1 Na py         
    45     -0.808955  2 Cl py                16     -0.545468  1 Na py         
    26      0.507427  1 Na dxz               10     -0.438165  1 Na py         
    12      0.370839  1 Na px                22     -0.348641  1 Na dyz        
    44     -0.197984  2 Cl px                15     -0.133498  1 Na px         

 Vector   27  Occ=0.000000D+00  E= 8.438557D-02  Symmetry=e
              MO Center=  1.4D-14,  1.8D-14, -3.5D-01, r^2= 2.0D+01
   Bfn.  Coefficient  Atom+Function         Bfn.  Coefficient  Atom+Function  
  ----- ------------  ---------------      ----- ------------  ---------------
    26      2.073325  1 Na dxz               12      1.515236  1 Na px         
    44     -0.808955  2 Cl px                15     -0.545468  1 Na px         
    28     -0.507427  1 Na dyz                9     -0.438165  1 Na px         
    13     -0.370839  1 Na py                20     -0.348641  1 Na dxz        
    45      0.197984  2 Cl py                16      0.133498  1 Na py         

 Vector   28  Occ=0.000000D+00  E= 9.289767D-02  Symmetry=a1
              MO Center=  7.1D-16, -2.1D-16,  4.4D-01, r^2= 1.8D+01
   Bfn.  Coefficient  Atom+Function         Bfn.  Coefficient  Atom+Function  
  ----- ------------  ---------------      ----- ------------  ---------------
     4      3.942428  1 Na s                 34     -2.881983  2 Cl s          
    24     -1.422248  1 Na dxx               27     -1.422248  1 Na dyy        
    14      1.100801  1 Na pz                11      0.841859  1 Na pz         
    29      0.730018  1 Na dzz                5     -0.654638  1 Na s          
    17     -0.367567  1 Na pz                40     -0.232498  2 Cl pz         

 Vector   29  Occ=0.000000D+00  E= 1.179279D-01  Symmetry=e
              MO Center=  3.0D-15,  1.8D-15, -3.2D-01, r^2= 1.8D+01
   Bfn.  Coefficient  Atom+Function         Bfn.  Coefficient  Atom+Function  
  ----- ------------  ---------------      ----- ------------  ---------------
    45      1.987353  2 Cl py                13     -1.588219  1 Na py         
    44      1.016342  2 Cl px                12     -0.812223  1 Na px         
    22     -0.527695  1 Na dyz               16      0.429094  1 Na py         
    20     -0.269866  1 Na dxz               15      0.219441  1 Na px         
    42     -0.196659  2 Cl py                39     -0.192679  2 Cl py         

 Vector   30  Occ=0.000000D+00  E= 1.179279D-01  Symmetry=e
              MO Center=  1.8D-16, -3.1D-16, -3.2D-01, r^2= 1.8D+01
   Bfn.  Coefficient  Atom+Function         Bfn.  Coefficient  Atom+Function  
  ----- ------------  ---------------      ----- ------------  ---------------
    44      1.987353  2 Cl px                12     -1.588219  1 Na px         
    45     -1.016342  2 Cl py                13      0.812223  1 Na py         
    20     -0.527695  1 Na dxz               15      0.429094  1 Na px         
    22      0.269866  1 Na dyz               16     -0.219441  1 Na py         
    41     -0.196659  2 Cl px                38     -0.192679  2 Cl px         

 Vector   31  Occ=0.000000D+00  E= 1.434842D-01  Symmetry=a1
              MO Center= -2.9D-15,  9.1D-16,  8.5D-01, r^2= 1.8D+01
   Bfn.  Coefficient  Atom+Function         Bfn.  Coefficient  Atom+Function  
  ----- ------------  ---------------      ----- ------------  ---------------
    46      3.038098  2 Cl pz                34      2.971087  2 Cl s          
     4     -2.281026  1 Na s                 14     -2.259845  1 Na pz         
    29     -1.282303  1 Na dzz               11     -1.158617  1 Na pz         
     3      0.575526  1 Na s                 43     -0.560191  2 Cl pz         
    17      0.452695  1 Na pz                24      0.444603  1 Na dxx        

 Vector   32  Occ=0.000000D+00  E= 1.674867D-01  Symmetry=e
              MO Center=  3.4D-17, -8.3D-18, -7.7D-01, r^2= 1.2D+01
   Bfn.  Coefficient  Atom+Function         Bfn.  Coefficient  Atom+Function  
  ----- ------------  ---------------      ----- ------------  ---------------
    45     -4.115921  2 Cl py                28      3.817802  1 Na dyz        
    10      2.900646  1 Na py                44      1.632346  2 Cl px         
    26     -1.514114  1 Na dxz               13      1.226573  1 Na py         
     9     -1.150376  1 Na px                 7      0.554309  1 Na py         
    12     -0.486450  1 Na px                42     -0.265474  2 Cl py         

 Vector   33  Occ=0.000000D+00  E= 1.674867D-01  Symmetry=e
              MO Center= -7.9D-17,  1.5D-16, -7.7D-01, r^2= 1.2D+01
   Bfn.  Coefficient  Atom+Function         Bfn.  Coefficient  Atom+Function  
  ----- ------------  ---------------      ----- ------------  ---------------
    44     -4.115921  2 Cl px                26      3.817802  1 Na dxz        
     9      2.900646  1 Na px                45     -1.632346  2 Cl py         
    28      1.514114  1 Na dyz               12      1.226573  1 Na px         
    10      1.150376  1 Na py                 6      0.554309  1 Na px         
    13      0.486450  1 Na py                41     -0.265474  2 Cl px         

 Vector   34  Occ=0.000000D+00  E= 1.741879D-01  Symmetry=a1
              MO Center= -1.7D-15,  4.6D-16, -6.8D-01, r^2= 1.5D+01
   Bfn.  Coefficient  Atom+Function         Bfn.  Coefficient  Atom+Function  
  ----- ------------  ---------------      ----- ------------  ---------------
     4      5.052987  1 Na s                 29     -3.572441  1 Na dzz        
    46      2.944011  2 Cl pz                34     -1.599844  2 Cl s          
    11     -1.468283  1 Na pz                24     -0.838643  1 Na dxx        
    27     -0.838643  1 Na dyy                5     -0.753864  1 Na s          
    14     -0.596770  1 Na pz                23      0.594475  1 Na dzz        

 Vector   35  Occ=0.000000D+00  E= 2.344233D-01  Symmetry=a1
              MO Center=  9.6D-16, -9.5D-16, -1.2D+00, r^2= 1.6D+01
   Bfn.  Coefficient  Atom+Function         Bfn.  Coefficient  Atom+Function  
  ----- ------------  ---------------      ----- ------------  ---------------
     4      9.169426  1 Na s                 11      3.382425  1 Na pz         
    24     -3.358007  1 Na dxx               27     -3.358007  1 Na dyy        
    34     -2.073124  2 Cl s                 29     -1.882765  1 Na dzz        
    33     -1.631074  2 Cl s                 46     -1.422890  2 Cl pz         
     8      1.050270  1 Na pz                 5     -0.966603  1 Na s          

 Vector   36  Occ=0.000000D+00  E= 2.494852D-01  Symmetry=b1
              MO Center=  1.1D-17, -2.3D-16, -5.0D-01, r^2= 7.5D+00
   Bfn.  Coefficient  Atom+Function         Bfn.  Coefficient  Atom+Function  
  ----- ------------  ---------------      ----- ------------  ---------------
    18      1.190931  1 Na dxx               21     -1.190931  1 Na dyy        
    24     -1.033902  1 Na dxx               27      1.033902  1 Na dyy        
    53      0.179225  2 Cl dxx               56     -0.179225  2 Cl dyy        
    47      0.135495  2 Cl dxx               50     -0.135495  2 Cl dyy        

 Vector   37  Occ=0.000000D+00  E= 2.494853D-01  Symmetry=b2
              MO Center=  2.1D-14, -7.3D-15, -5.0D-01, r^2= 7.5D+00
   Bfn.  Coefficient  Atom+Function         Bfn.  Coefficient  Atom+Function  
  ----- ------------  ---------------      ----- ------------  ---------------
    19      2.381861  1 Na dxy               25     -2.067804  1 Na dxy        
    54      0.358448  2 Cl dxy               48      0.270994  2 Cl dxy        

 Vector   38  Occ=0.000000D+00  E= 3.002457D-01  Symmetry=a1
              MO Center= -5.3D-16,  2.0D-16, -6.5D-01, r^2= 1.0D+01
   Bfn.  Coefficient  Atom+Function         Bfn.  Coefficient  Atom+Function  
  ----- ------------  ---------------      ----- ------------  ---------------
    34      4.014219  2 Cl s                 33     -1.875438  2 Cl s          
    23      1.825949  1 Na dzz               29     -1.754460  1 Na dzz        
    18     -1.273494  1 Na dxx               21     -1.273494  1 Na dyy        
    14     -1.162569  1 Na pz                58     -0.635476  2 Cl dzz        
    53     -0.524624  2 Cl dxx               56     -0.524624  2 Cl dyy        

 Vector   39  Occ=0.000000D+00  E= 3.228454D-01  Symmetry=e
              MO Center=  2.1D-16,  1.1D-18, -8.9D-01, r^2= 8.7D+00
   Bfn.  Coefficient  Atom+Function         Bfn.  Coefficient  Atom+Function  
  ----- ------------  ---------------      ----- ------------  ---------------
    22      3.979958  1 Na dyz               28     -2.485492  1 Na dyz        
    42     -1.357186  2 Cl py                10      0.861328  1 Na py         
    13     -0.790724  1 Na py                45      0.668078  2 Cl py         
    57      0.339278  2 Cl dyz                7      0.333861  1 Na py         
    16      0.209569  1 Na py                39     -0.104193  2 Cl py         

 Vector   40  Occ=0.000000D+00  E= 3.228454D-01  Symmetry=e
              MO Center=  4.1D-18,  1.1D-16, -8.9D-01, r^2= 8.7D+00
   Bfn.  Coefficient  Atom+Function         Bfn.  Coefficient  Atom+Function  
  ----- ------------  ---------------      ----- ------------  ---------------
    20      3.979958  1 Na dxz               26     -2.485492  1 Na dxz        
    41     -1.357186  2 Cl px                 9      0.861328  1 Na px         
    12     -0.790724  1 Na px                44      0.668078  2 Cl px         
    55      0.339278  2 Cl dxz                6      0.333861  1 Na px         
    15      0.209569  1 Na px                38     -0.104193  2 Cl px         

 Vector   41  Occ=0.000000D+00  E= 4.248524D-01  Symmetry=b2
              MO Center= -1.8D-16,  6.0D-17, -3.1D-02, r^2= 4.2D+00
   Bfn.  Coefficient  Atom+Function         Bfn.  Coefficient  Atom+Function  
  ----- ------------  ---------------      ----- ------------  ---------------
    19      2.237881  1 Na dxy               54     -1.795379  2 Cl dxy        
    25     -0.946385  1 Na dxy               48     -0.292839  2 Cl dxy        

 Vector   42  Occ=0.000000D+00  E= 4.248525D-01  Symmetry=b1
              MO Center=  2.6D-16,  5.8D-18, -3.1D-02, r^2= 4.2D+00
   Bfn.  Coefficient  Atom+Function         Bfn.  Coefficient  Atom+Function  
  ----- ------------  ---------------      ----- ------------  ---------------
    18      1.118940  1 Na dxx               21     -1.118940  1 Na dyy        
    53     -0.897692  2 Cl dxx               56      0.897692  2 Cl dyy        
    24     -0.473192  1 Na dxx               27      0.473192  1 Na dyy        
    47     -0.146416  2 Cl dxx               50      0.146416  2 Cl dyy        

 Vector   43  Occ=0.000000D+00  E= 4.267354D-01  Symmetry=e
              MO Center=  3.5D-16, -1.6D-15,  7.2D-01, r^2= 4.2D+00
   Bfn.  Coefficient  Atom+Function         Bfn.  Coefficient  Atom+Function  
  ----- ------------  ---------------      ----- ------------  ---------------
    44      2.654137  2 Cl px                 9     -2.214617  1 Na px         
    55     -1.775818  2 Cl dxz               26     -1.697002  1 Na dxz        
     6     -0.784335  1 Na px                12     -0.625309  1 Na px         
    45     -0.581412  2 Cl py                10      0.485131  1 Na py         
    49     -0.486928  2 Cl dxz               57      0.389009  2 Cl dyz        

 Vector   44  Occ=0.000000D+00  E= 4.267354D-01  Symmetry=e
              MO Center=  1.4D-16, -6.6D-17,  7.2D-01, r^2= 4.2D+00
   Bfn.  Coefficient  Atom+Function         Bfn.  Coefficient  Atom+Function  
  ----- ------------  ---------------      ----- ------------  ---------------
    45      2.654137  2 Cl py                10     -2.214617  1 Na py         
    57     -1.775818  2 Cl dyz               28     -1.697002  1 Na dyz        
     7     -0.784335  1 Na py                13     -0.625309  1 Na py         
    44      0.581412  2 Cl px                 9     -0.485131  1 Na px         
    51     -0.486928  2 Cl dyz               55     -0.389009  2 Cl dxz        

 Vector   45  Occ=0.000000D+00  E= 5.090614D-01  Symmetry=a1
              MO Center=  3.2D-16,  8.5D-17, -6.8D-01, r^2= 7.6D+00
   Bfn.  Coefficient  Atom+Function         Bfn.  Coefficient  Atom+Function  
  ----- ------------  ---------------      ----- ------------  ---------------
    34      4.608239  2 Cl s                 23     -3.736067  1 Na dzz        
     4     -3.072763  1 Na s                 46     -2.770857  2 Cl pz         
     3      2.680292  1 Na s                 18     -2.332658  1 Na dxx        
    21     -2.332658  1 Na dyy               29      2.155046  1 Na dzz        
    43      1.471555  2 Cl pz                11     -0.745700  1 Na pz         

 Vector   46  Occ=0.000000D+00  E= 6.341708D-01  Symmetry=a1
              MO Center=  5.5D-17, -2.9D-16, -2.1D-01, r^2= 7.0D+00
   Bfn.  Coefficient  Atom+Function         Bfn.  Coefficient  Atom+Function  
  ----- ------------  ---------------      ----- ------------  ---------------
    34      2.790354  2 Cl s                  4      2.769377  1 Na s          
    53     -2.047237  2 Cl dxx               56     -2.047237  2 Cl dyy        
    11      1.973671  1 Na pz                58     -1.691761  2 Cl dzz        
    24     -1.597874  1 Na dxx               27     -1.597874  1 Na dyy        
     3     -1.195090  1 Na s                 23      0.858590  1 Na dzz        

 Vector   47  Occ=0.000000D+00  E= 6.983950D-01  Symmetry=a1
              MO Center= -9.0D-17,  5.4D-18,  6.5D-01, r^2= 4.7D+00
   Bfn.  Coefficient  Atom+Function         Bfn.  Coefficient  Atom+Function  
  ----- ------------  ---------------      ----- ------------  ---------------
    34      9.891831  2 Cl s                 11     -4.368630  1 Na pz         
    23     -3.973342  1 Na dzz               58     -2.471832  2 Cl dzz        
     4     -2.381270  1 Na s                 18     -1.845220  1 Na dxx        
    21     -1.845220  1 Na dyy               43      1.159055  2 Cl pz         
    46     -1.089826  2 Cl pz                 3     -1.019083  1 Na s          

 Vector   48  Occ=0.000000D+00  E= 7.839694D-01  Symmetry=e
              MO Center= -2.4D-15, -5.2D-16,  1.6D-01, r^2= 4.3D+00
   Bfn.  Coefficient  Atom+Function         Bfn.  Coefficient  Atom+Function  
  ----- ------------  ---------------      ----- ------------  ---------------
    41      2.375919  2 Cl px                 9     -1.412939  1 Na px         
    38     -1.214067  2 Cl px                20     -1.201579  1 Na dxz        
    55     -0.656680  2 Cl dxz               42      0.594564  2 Cl py         
    12      0.534290  1 Na px                 6     -0.482802  1 Na px         
    10     -0.353583  1 Na py                39     -0.303816  2 Cl py         

 Vector   49  Occ=0.000000D+00  E= 7.839694D-01  Symmetry=e
              MO Center= -3.4D-19,  1.8D-17,  1.6D-01, r^2= 4.3D+00
   Bfn.  Coefficient  Atom+Function         Bfn.  Coefficient  Atom+Function  
  ----- ------------  ---------------      ----- ------------  ---------------
    42      2.375919  2 Cl py                10     -1.412939  1 Na py         
    39     -1.214067  2 Cl py                22     -1.201579  1 Na dyz        
    57     -0.656680  2 Cl dyz               41     -0.594564  2 Cl px         
    13      0.534290  1 Na py                 7     -0.482802  1 Na py         
     9      0.353583  1 Na px                38      0.303816  2 Cl px         

 Vector   50  Occ=0.000000D+00  E= 8.106966D-01  Symmetry=a1
              MO Center=  4.5D-17,  2.0D-16,  5.9D-02, r^2= 5.4D+00
   Bfn.  Coefficient  Atom+Function         Bfn.  Coefficient  Atom+Function  
  ----- ------------  ---------------      ----- ------------  ---------------
    34      7.296379  2 Cl s                  3     -5.082201  1 Na s          
    11     -4.028745  1 Na pz                 4      3.689096  1 Na s          
    23     -3.625426  1 Na dzz               43      3.562880  2 Cl pz         
    46     -2.896708  2 Cl pz                 2     -1.587057  1 Na s          
    24     -1.558824  1 Na dxx               27     -1.558824  1 Na dyy        

 Vector   51  Occ=0.000000D+00  E= 1.149261D+00  Symmetry=e
              MO Center=  5.7D-18,  6.0D-18,  6.1D-01, r^2= 2.5D+00
   Bfn.  Coefficient  Atom+Function         Bfn.  Coefficient  Atom+Function  
  ----- ------------  ---------------      ----- ------------  ---------------
    57      1.637030  2 Cl dyz               51     -1.617751  2 Cl dyz        
    55      1.502353  2 Cl dxz               49     -1.484660  2 Cl dxz        
    45     -1.266837  2 Cl py                44     -1.162616  2 Cl px         
    10      1.123803  1 Na py                 9      1.031349  1 Na px         
    28      0.882819  1 Na dyz               26      0.810191  1 Na dxz        

 Vector   52  Occ=0.000000D+00  E= 1.149261D+00  Symmetry=e
              MO Center= -1.3D-17, -6.4D-19,  6.1D-01, r^2= 2.5D+00
   Bfn.  Coefficient  Atom+Function         Bfn.  Coefficient  Atom+Function  
  ----- ------------  ---------------      ----- ------------  ---------------
    55     -1.637030  2 Cl dxz               49      1.617751  2 Cl dxz        
    57      1.502353  2 Cl dyz               51     -1.484660  2 Cl dyz        
    44      1.266837  2 Cl px                45     -1.162616  2 Cl py         
     9     -1.123803  1 Na px                10      1.031349  1 Na py         
    26     -0.882819  1 Na dxz               28      0.810191  1 Na dyz        

 Vector   53  Occ=0.000000D+00  E= 1.171237D+00  Symmetry=b2
              MO Center=  2.7D-18,  1.2D-17,  5.0D-01, r^2= 1.8D+00
   Bfn.  Coefficient  Atom+Function         Bfn.  Coefficient  Atom+Function  
  ----- ------------  ---------------      ----- ------------  ---------------
    48      2.179512  2 Cl dxy               54     -1.930504  2 Cl dxy        
    19      0.583111  1 Na dxy        

 Vector   54  Occ=0.000000D+00  E= 1.171248D+00  Symmetry=b1
              MO Center= -8.2D-17, -1.3D-17,  5.0D-01, r^2= 1.8D+00
   Bfn.  Coefficient  Atom+Function         Bfn.  Coefficient  Atom+Function  
  ----- ------------  ---------------      ----- ------------  ---------------
    47      1.089757  2 Cl dxx               50     -1.089757  2 Cl dyy        
    53     -0.965249  2 Cl dxx               56      0.965249  2 Cl dyy        
    18      0.291554  1 Na dxx               21     -0.291554  1 Na dyy        

 Vector   55  Occ=0.000000D+00  E= 1.331919D+00  Symmetry=a1
              MO Center=  8.1D-18, -8.2D-17,  6.1D-01, r^2= 2.1D+00
   Bfn.  Coefficient  Atom+Function         Bfn.  Coefficient  Atom+Function  
  ----- ------------  ---------------      ----- ------------  ---------------
    11      2.575320  1 Na pz                34     -2.421104  2 Cl s          
    23      1.822393  1 Na dzz               52     -1.451511  2 Cl dzz        
    53     -1.275099  2 Cl dxx               56     -1.275099  2 Cl dyy        
    58      1.125889  2 Cl dzz                4      1.113573  1 Na s          
     8      0.999576  1 Na pz                18      0.736894  1 Na dxx        

 Vector   56  Occ=0.000000D+00  E= 2.256398D+00  Symmetry=a1
              MO Center= -1.1D-17, -1.1D-17,  4.8D-01, r^2= 3.2D+00
   Bfn.  Coefficient  Atom+Function         Bfn.  Coefficient  Atom+Function  
  ----- ------------  ---------------      ----- ------------  ---------------
    33      5.473140  2 Cl s                  3      4.996373  1 Na s          
    32     -5.008679  2 Cl s                 31     -4.072964  2 Cl s          
    58     -3.063385  2 Cl dzz               53     -2.756518  2 Cl dxx        
    56     -2.756518  2 Cl dyy                2      1.927772  1 Na s          
    11      1.869358  1 Na pz                43      0.983982  2 Cl pz         

 Vector   57  Occ=0.000000D+00  E= 2.760563D+00  Symmetry=a1
              MO Center=  1.5D-18,  3.8D-18, -7.1D-01, r^2= 4.3D+00
   Bfn.  Coefficient  Atom+Function         Bfn.  Coefficient  Atom+Function  
  ----- ------------  ---------------      ----- ------------  ---------------
     3     23.709870  1 Na s                 34    -19.914635  2 Cl s          
     2      9.902643  1 Na s                 11      7.677470  1 Na pz         
     4     -4.216004  1 Na s                 46      3.787660  2 Cl pz         
    18     -2.560098  1 Na dxx               21     -2.560098  1 Na dyy        
    33     -2.247716  2 Cl s                  8      1.805283  1 Na pz         

 Vector   58  Occ=0.000000D+00  E= 5.348814D+00  Symmetry=a1
              MO Center=  5.9D-20, -8.9D-19,  4.8D-01, r^2= 3.0D+00
   Bfn.  Coefficient  Atom+Function         Bfn.  Coefficient  Atom+Function  
  ----- ------------  ---------------      ----- ------------  ---------------
    33     16.572094  2 Cl s                 34      6.252657  2 Cl s          
    31     -6.128102  2 Cl s                 32     -4.917028  2 Cl s          
    58     -4.912147  2 Cl dzz               53     -4.702938  2 Cl dxx        
    56     -4.702938  2 Cl dyy               47     -3.247146  2 Cl dxx        
    50     -3.247146  2 Cl dyy               52     -3.250667  2 Cl dzz        


------------------------------------------------------------
EAF file 0: "./nacl_aug-cc-pvdz.aoints.0" size=524288 bytes
------------------------------------------------------------
               write      read    awrite     aread      wait
               -----      ----    ------     -----      ----
     calls:        1         8         0         0         0
   data(b): 5.24e+05  4.19e+06  0.00e+00  0.00e+00
   time(s): 0.00e+00  0.00e+00  0.00e+00  0.00e+00  0.00e+00
rate(mb/s): 0.00e+00  0.00e+00
------------------------------------------------------------


 center of mass
 --------------
 x =   0.00000000 y =   0.00000000 z =  -0.00911367

 moments of inertia (a.u.)
 ------------------
          79.721070261053           0.000000000000           0.000000000000
           0.000000000000          79.721070261053           0.000000000000
           0.000000000000           0.000000000000           0.000000000000

     Multipole analysis of the density
     ---------------------------------

     L   x y z        total         alpha         beta         nuclear
     -   - - -        -----         -----         ----         -------
     0   0 0 0     -0.000000    -14.000000    -14.000000     28.000000

     1   1 0 0      0.000000      0.000000      0.000000      0.000000
     1   0 1 0      0.000000      0.000000      0.000000      0.000000
     1   0 0 1     -1.454900     -0.727450     -0.727450      0.000000

     2   2 0 0    -15.050787     -7.525394     -7.525394      0.000000
     2   1 1 0     -0.000000     -0.000000     -0.000000      0.000000
     2   1 0 1      0.000000      0.000000      0.000000      0.000000
     2   0 2 0    -15.050787     -7.525394     -7.525394      0.000000
     2   0 1 1      0.000000      0.000000      0.000000      0.000000
     2   0 0 2    -14.440947    -26.412835    -26.412835     38.384723


 Parallel integral file used      10 records with       0 large values


 Task  times  cpu:        3.9s     wall:        3.9s
 Summary of allocated global arrays
-----------------------------------
  No active global arrays



                         GA Statistics for process    0
                         ------------------------------

       create   destroy   get      put      acc     scatter   gather  read&inc
calls:  265      265     1.21e+04 4427     2008        0        0      757     
number of processes/call 0.00e+00 0.00e+00 0.00e+00 0.00e+00 0.00e+00
bytes total:             2.79e+07 7.33e+06 1.65e+07 0.00e+00 0.00e+00 6.06e+03
bytes remote:            0.00e+00 0.00e+00 0.00e+00 0.00e+00 0.00e+00 0.00e+00
Max memory consumed for GA by this process: 1049568 bytes
MA_summarize_allocated_blocks: starting scan ...
MA_summarize_allocated_blocks: scan completed: 0 heap blocks, 0 stack blocks
MA usage statistics:

	allocation statistics:
					      heap	     stack
					      ----	     -----
	current number of blocks	         0	         0
	maximum number of blocks	        22	        57
	current total bytes		         0	         0
	maximum total bytes		   8581152	  22512104
	maximum total K-bytes		      8582	     22513
	maximum total M-bytes		         9	        23


                                NWChem Input Module
                                -------------------





                                     CITATION
                                     --------
                Please cite the following reference when publishing
                           results obtained with NWChem:

                 M. Valiev, E.J. Bylaska, N. Govind, K. Kowalski,
              T.P. Straatsma, H.J.J. van Dam, D. Wang, J. Nieplocha,
                        E. Apra, T.L. Windus, W.A. de Jong
                 "NWChem: a comprehensive and scalable open-source
                  solution for large scale molecular simulations"
                      Comput. Phys. Commun. 181, 1477 (2010)
                           doi:10.1016/j.cpc.2010.04.018

                                      AUTHORS
                                      -------
     E. Apra, E. J. Bylaska, N. Govind, K. Kowalski, M. Valiev, W. A. de Jong,
      T. P. Straatsma, H. J. J. van Dam, D. Wang, T. L. Windus, N. P. Bauman,
       A. Panyala, J. Hammond, J. Autschbach, K. Bhaskaran-Nair, J. Brabec,
    K. Lopata, S. A. Fischer, S. Krishnamoorthy, M. Jacquelin, W. Ma, M. Klemm,
       O. Villa, Y. Chen, V. Anisimov, F. Aquino, S. Hirata, M. T. Hackler,
           Eric Hermes, L. Jensen, J. E. Moore, J. C. Becca, V. Konjkov,
            D. Mejia-Rodriguez, T. Risthaus, M. Malagoli, A. Marenich,
   A. Otero-de-la-Roza, J. Mullin, P. Nichols, R. Peverati, J. Pittner, Y. Zhao,
        P.-D. Fan, A. Fonari, M. J. Williamson, R. J. Harrison, J. R. Rehr,
      M. Dupuis, D. Silverstein, D. M. A. Smith, J. Nieplocha, V. Tipparaju,
      M. Krishnan, B. E. Van Kuiken, A. Vazquez-Mayagoitia, M. Swart, Q. Wu,
   T. Van Voorhis, A. A. Auer, M. Nooijen, L. D. Crosby, E. Brown, G. Cisneros,
     G. I. Fann, H. Fruchtl, J. Garza, K. Hirao, R. A. Kendall, J. A. Nichols,
       K. Tsemekhman, K. Wolinski, J. Anchell, D. E. Bernholdt, P. Borowski,
       T. Clark, D. Clerc, H. Dachsel, M. J. O. Deegan, K. Dyall, D. Elwood,
      E. Glendening, M. Gutowski, A. C. Hess, J. Jaffe, B. G. Johnson, J. Ju,
        R. Kobayashi, R. Kutteh, Z. Lin, R. Littlefield, X. Long, B. Meng,
      T. Nakajima, S. Niu, L. Pollack, M. Rosing, K. Glaesemann, G. Sandrone,
      M. Stave, H. Taylor, G. Thomas, J. H. van Lenthe, A. T. Wong, Z. Zhang.

 Total times  cpu:        4.0s     wall:        4.0s
