 argument  1 = nacl_cc-pvdz.inp
                                         
                                         


             Northwest Computational Chemistry Package (NWChem) 7.0.0
             --------------------------------------------------------


                    Environmental Molecular Sciences Laboratory
                       Pacific Northwest National Laboratory
                                Richland, WA 99352

                              Copyright (c) 1994-2019
                       Pacific Northwest National Laboratory
                            Battelle Memorial Institute

             NWChem is an open-source computational chemistry package
                        distributed under the terms of the
                      Educational Community License (ECL) 2.0
             A copy of the license is included with this distribution
                              in the LICENSE.TXT file

                                  ACKNOWLEDGMENT
                                  --------------

            This software and its documentation were developed at the
            EMSL at Pacific Northwest National Laboratory, a multiprogram
            national laboratory, operated for the U.S. Department of Energy
            by Battelle under Contract Number DE-AC05-76RL01830. Support
            for this work was provided by the Department of Energy Office
            of Biological and Environmental Research, Office of Basic
            Energy Sciences, and the Office of Advanced Scientific Computing.


           Job information
           ---------------

    hostname        = Amanda-Dewyers-MacBook-Air.local
    program         = nwchem
    date            = Fri Sep 11 17:06:46 2020

    compiled        = Fri_Jul_03_06:05:09_2020
    source          = /private/tmp/nwchem-20200703-71421-tc8c0i/nwchem-7.0.0
    nwchem branch   = 7.0.0
    nwchem revision = 2c9a1c7c
    ga revision     = 5.7.1
    use scalapack   = T
    input           = nacl_cc-pvdz.inp
    prefix          = nacl_cc-pvdz.
    data base       = ./nacl_cc-pvdz.db
    status          = startup
    nproc           =        1
    time left       =     -1s



           Memory information
           ------------------

    heap     =   13107196 doubles =    100.0 Mbytes
    stack    =   13107201 doubles =    100.0 Mbytes
    global   =   26214400 doubles =    200.0 Mbytes (distinct from heap & stack)
    total    =   52428797 doubles =    400.0 Mbytes
    verify   = yes
    hardfail = no 


           Directory information
           ---------------------

  0 permanent = .
  0 scratch   = .




                                NWChem Input Module
                                -------------------


                                     test case
                                     ---------
 ORDER OF PRIMARY AXIS IS BEING SET TO 4
 C4V symmetry detected

          ------
          auto-z
          ------
  no constraints, skipping    0.0000000000000000     
  no constraints, skipping    0.0000000000000000     


                             Geometry "geometry" -> ""
                             -------------------------

 Output coordinates in a.u. (scale by  1.000000000 to convert to a.u.)

  No.       Tag          Charge          X              Y              Z
 ---- ---------------- ---------- -------------- -------------- --------------
    1 Na                  11.0000     0.00000000     0.00000000    -1.45555396
    2 Cl                  17.0000     0.00000000     0.00000000     0.94182903

      Atomic Mass 
      ----------- 

      Na                22.989800
      Cl                34.968850


 Effective nuclear repulsion energy (a.u.)      78.0017214429

            Nuclear Dipole moment (a.u.) 
            ----------------------------
        X                 Y               Z
 ---------------- ---------------- ----------------
     0.0000000000     0.0000000000     0.0000000000

      Symmetry information
      --------------------

 Group name             C4v       
 Group number             18
 Group order               8
 No. of unique centers     2

      Symmetry unique atoms

     1    2



                                Z-matrix (autoz)
                                -------- 

 Units are Angstrom for bonds and degrees for angles

      Type          Name      I     J     K     L     M      Value
      ----------- --------  ----- ----- ----- ----- ----- ----------
    1 Stretch                  1     2                       1.26864


            XYZ format geometry
            -------------------
     2
 geometry
 Na                    0.00000000     0.00000000    -0.77024604
 Cl                    0.00000000     0.00000000     0.49839450

 ==============================================================================
                                internuclear distances
 ------------------------------------------------------------------------------
       center one      |      center two      | atomic units |       a.u.
 ------------------------------------------------------------------------------
    2 Cl               |   1 Na               |     2.39738  |     2.39738
 ------------------------------------------------------------------------------
                         number of included internuclear distances:          1
 ==============================================================================



  library name resolved from: .nwchemrc
  library file name is: </usr/local/Cellar/nwchem/7.0.0_2/share/nwchem/libraries/>
  


 Summary of "ao basis" -> "" (cartesian)
 ------------------------------------------------------------------------------
       Tag                 Description            Shells   Functions and Types
 ---------------- ------------------------------  ------  ---------------------
 *                          cc-pvdz                   on all atoms 



                                 NWChem DFT Module
                                 -----------------


                                     test case


                      Basis "ao basis" -> "ao basis" (cartesian)
                      -----
  Na (Sodium)
  -----------
            Exponent  Coefficients 
       -------------- ---------------------------------------------------------
  1 S  3.17000000E+04  0.000459
  1 S  4.75500000E+03  0.003551
  1 S  1.08200000E+03  0.018262
  1 S  3.06400000E+02  0.071665
  1 S  9.95300000E+01  0.212346
  1 S  3.54200000E+01  0.416203
  1 S  1.33000000E+01  0.373020
  1 S  4.39200000E+00  0.062505
  1 S  1.67600000E+00 -0.006245
  1 S  5.88900000E-01  0.002434
  1 S  5.64000000E-02 -0.000442

  2 S  3.17000000E+04 -0.000112
  2 S  4.75500000E+03 -0.000869
  2 S  1.08200000E+03 -0.004513
  2 S  3.06400000E+02 -0.018144
  2 S  9.95300000E+01 -0.058080
  2 S  3.54200000E+01 -0.137653
  2 S  1.33000000E+01 -0.193908
  2 S  4.39200000E+00  0.085801
  2 S  1.67600000E+00  0.604419
  2 S  5.88900000E-01  0.441719
  2 S  5.64000000E-02  0.013055

  3 S  3.17000000E+04  0.000017
  3 S  4.75500000E+03  0.000131
  3 S  1.08200000E+03  0.000688
  3 S  3.06400000E+02  0.002724
  3 S  9.95300000E+01  0.008955
  3 S  3.54200000E+01  0.020783
  3 S  1.33000000E+01  0.031938
  3 S  4.39200000E+00 -0.019137
  3 S  1.67600000E+00 -0.102595
  3 S  5.88900000E-01 -0.198945
  3 S  5.64000000E-02  0.655952

  4 S  2.30700000E-02  1.000000

  5 P  1.38100000E+02  0.005796
  5 P  3.22400000E+01  0.041576
  5 P  9.98500000E+00  0.162873
  5 P  3.48400000E+00  0.359401
  5 P  1.23100000E+00  0.449988
  5 P  4.17700000E-01  0.227507
  5 P  6.51300000E-02  0.008082

  6 P  1.38100000E+02 -0.000582
  6 P  3.22400000E+01 -0.004073
  6 P  9.98500000E+00 -0.016794
  6 P  3.48400000E+00 -0.035327
  6 P  1.23100000E+00 -0.052197
  6 P  4.17700000E-01 -0.016836
  6 P  6.51300000E-02  0.434613

  7 P  2.05300000E-02  1.000000

  8 D  9.73000000E-02  1.000000

  Cl (Chlorine)
  -------------
            Exponent  Coefficients 
       -------------- ---------------------------------------------------------
  1 S  1.27900000E+05  0.000241
  1 S  1.91700000E+04  0.001871
  1 S  4.36300000E+03  0.009708
  1 S  1.23600000E+03  0.039315
  1 S  4.03600000E+02  0.125932
  1 S  1.45700000E+02  0.299341
  1 S  5.68100000E+01  0.421886
  1 S  2.32300000E+01  0.237201
  1 S  6.64400000E+00  0.019153
  1 S  2.57500000E+00 -0.003348
  1 S  5.37100000E-01  0.000930

  2 S  1.27900000E+05 -0.000068
  2 S  1.91700000E+04 -0.000522
  2 S  4.36300000E+03 -0.002765
  2 S  1.23600000E+03 -0.011154
  2 S  4.03600000E+02 -0.038592
  2 S  1.45700000E+02 -0.099485
  2 S  5.68100000E+01 -0.201392
  2 S  2.32300000E+01 -0.130313
  2 S  6.64400000E+00  0.509443
  2 S  2.57500000E+00  0.610725
  2 S  5.37100000E-01  0.042155

  3 S  1.27900000E+05  0.000020
  3 S  1.91700000E+04  0.000158
  3 S  4.36300000E+03  0.000834
  3 S  1.23600000E+03  0.003399
  3 S  4.03600000E+02  0.011674
  3 S  1.45700000E+02  0.030962
  3 S  5.68100000E+01  0.062953
  3 S  2.32300000E+01  0.046026
  3 S  6.64400000E+00 -0.219312
  3 S  2.57500000E+00 -0.408773
  3 S  5.37100000E-01  0.638465

  4 S  1.93800000E-01  1.000000

  5 P  4.17600000E+02  0.005260
  5 P  9.83300000E+01  0.039833
  5 P  3.10400000E+01  0.164655
  5 P  1.11900000E+01  0.387322
  5 P  4.24900000E+00  0.457072
  5 P  1.62400000E+00  0.151636
  5 P  5.32200000E-01  0.001816

  6 P  4.17600000E+02 -0.001436
  6 P  9.83300000E+01 -0.010780
  6 P  3.10400000E+01 -0.047008
  6 P  1.11900000E+01 -0.111030
  6 P  4.24900000E+00 -0.153275
  6 P  1.62400000E+00  0.089461
  6 P  5.32200000E-01  0.579444

  7 P  1.62000000E-01  1.000000

  8 D  6.00000000E-01  1.000000



 Summary of "ao basis" -> "ao basis" (cartesian)
 ------------------------------------------------------------------------------
       Tag                 Description            Shells   Functions and Types
 ---------------- ------------------------------  ------  ---------------------
 Na                         cc-pvdz                  8       19   4s3p1d
 Cl                         cc-pvdz                  8       19   4s3p1d




 Summary of "ao basis" -> "ao basis" (cartesian)
 ------------------------------------------------------------------------------
       Tag                 Description            Shells   Functions and Types
 ---------------- ------------------------------  ------  ---------------------
 Na                         cc-pvdz                  8       19   4s3p1d
 Cl                         cc-pvdz                  8       19   4s3p1d


      Symmetry analysis of basis
      --------------------------

        a1         18
        a2          0
        b1          2
        b2          2
        e          16

  Caching 1-el integrals 

            General Information
            -------------------
          SCF calculation type: DFT
          Wavefunction type:  closed shell.
          No. of atoms     :     2
          No. of electrons :    28
           Alpha electrons :    14
            Beta electrons :    14
          Charge           :     0
          Spin multiplicity:     1
          Use of symmetry is: on ; symmetry adaption is: on 
          Maximum number of iterations:  30
          AO basis - number of functions:    38
                     number of shells:    16
          Convergence on energy requested:  1.00D-06
          Convergence on density requested:  1.00D-05
          Convergence on gradient requested:  5.00D-04

              XC Information
              --------------
                         B3LYP Method XC Potential
                     Hartree-Fock (Exact) Exchange  0.200          
                        Slater Exchange Functional  0.800 local    
                    Becke 1988 Exchange Functional  0.720 non-local
              Lee-Yang-Parr Correlation Functional  0.810          
                  VWN I RPA Correlation Functional  0.190 local    

             Grid Information
             ----------------
          Grid used for XC integration:  medium    
          Radial quadrature: Mura-Knowles        
          Angular quadrature: Lebedev. 
          Tag              B.-S. Rad. Rad. Pts. Rad. Cut. Ang. Pts.
          ---              ---------- --------- --------- ---------
          Na                  1.80       88          12.0       434
          Cl                  1.00       88           8.0       590
          Grid pruning is: on 
          Number of quadrature shells:   176
          Spatial weights used:  Erf1

          Convergence Information
          -----------------------
          Convergence aids based upon iterative change in 
          total energy or number of iterations. 
          Levelshifting, if invoked, occurs when the 
          HOMO/LUMO gap drops below (HL_TOL):  1.00D-02
          DIIS, if invoked, will attempt to extrapolate 
          using up to (NFOCK): 10 stored Fock matrices.

                    Damping( 0%)  Levelshifting(0.5)       DIIS
                  --------------- ------------------- ---------------
          dE  on:    start            ASAP                start   
          dE off:    2 iters         30 iters            30 iters 


      Screening Tolerance Information
      -------------------------------
          Density screening/tol_rho:  1.00D-10
          AO Gaussian exp screening on grid/accAOfunc:  14
          CD Gaussian exp screening on grid/accCDfunc:  20
          XC Gaussian exp screening on grid/accXCfunc:  20
          Schwarz screening/accCoul:  1.00D-08


      Superposition of Atomic Density Guess
      -------------------------------------

 Sum of atomic energies:        -621.32807310

      Non-variational initial energy
      ------------------------------

 Total energy =    -622.362491
 1-e energy   =   -1015.196231
 2-e energy   =     314.832019
 HOMO         =      -0.225705
 LUMO         =      -0.023700


      Symmetry analysis of molecular orbitals - initial
      -------------------------------------------------


 !! scf_movecs_sym_adapt:    4 vectors were symmetry contaminated

  Symmetry fudging

 !! scf_movecs_sym_adapt:    2 vectors were symmetry contaminated

  Numbering of irreducible representations: 

     1 a1          2 a2          3 b1          4 b2          5 e       

  Orbital symmetries:

     1 a1          2 a1          3 a1          4 a1          5 e       
     6 e           7 a1          8 a1          9 e          10 e       
    11 a1         12 e          13 e          14 a1         15 a1      
    16 e          17 e          18 a1         19 a1         20 e       
    21 e          22 a1         23 b1         24 b2      

   Time after variat. SCF:      1.2
   Time prior to 1st pass:      1.2

 Integral file          = ./nacl_cc-pvdz.aoints.0
 Record size in doubles =  65536        No. of integs per rec  =  43688
 Max. records in memory =      3        Max. records in file   = 183518
 No. of bits per label  =      8        No. of bits per value  =     64


 #quartets = 9.315D+03 #integrals = 8.097D+04 #direct =  0.0% #cached =100.0%


 Grid_pts file          = ./nacl_cc-pvdz.gridpts.0
 Record size in doubles =  12289        No. of grid_pts per rec  =   3070
 Max. records in memory =     39        Max. recs in file   =    978689


           Memory utilization after 1st SCF pass: 
           Heap Space remaining (MW):       12.43            12428420
          Stack Space remaining (MW):       13.11            13106868

   convergence    iter        energy       DeltaE   RMS-Dens  Diis-err    time
 ---------------- ----- ----------------- --------- --------- ---------  ------
 d= 0,ls=0.0,diis     1   -621.6976290082 -7.00D+02  5.22D-02  4.01D-01     2.5
 d= 0,ls=0.0,diis     2   -621.6485340675  4.91D-02  3.72D-02  4.98D-01     2.5
 d= 0,ls=0.0,diis     3   -621.7320176506 -8.35D-02  8.00D-03  5.33D-02     2.6
 d= 0,ls=0.0,diis     4   -621.7415613714 -9.54D-03  2.02D-03  2.15D-03     2.6
 d= 0,ls=0.0,diis     5   -621.7418627711 -3.01D-04  9.48D-05  8.65D-06     2.6
 d= 0,ls=0.0,diis     6   -621.7418636121 -8.41D-07  7.45D-05  2.02D-06     2.7
 d= 0,ls=0.0,diis     7   -621.7418640415 -4.29D-07  2.18D-06  3.90D-09     2.7


         Total DFT energy =     -621.741864041472
      One electron energy =    -1015.633371348889
           Coulomb energy =      358.917963291563
    Exchange-Corr. energy =      -43.028177427075
 Nuclear repulsion energy =       78.001721442928

 Numeric. integr. density =       28.000011780437

     Total iterative time =      1.5s



                  Occupations of the irreducible representations
                  ----------------------------------------------

                     irrep           alpha         beta
                     --------     --------     --------
                     a1                8.0          8.0
                     a2                0.0          0.0
                     b1                0.0          0.0
                     b2                0.0          0.0
                     e                 6.0          6.0


                       DFT Final Molecular Orbital Analysis
                       ------------------------------------

 Vector    1  Occ=2.000000D+00  E=-1.015497D+02  Symmetry=a1
              MO Center=  1.3D-31, -3.8D-32,  5.0D-01, r^2= 3.1D-03
   Bfn.  Coefficient  Atom+Function         Bfn.  Coefficient  Atom+Function  
  ----- ------------  ---------------      ----- ------------  ---------------
    20      1.000028  2 Cl s          

 Vector    2  Occ=2.000000D+00  E=-3.862834D+01  Symmetry=a1
              MO Center=  3.4D-21,  1.0D-21, -7.7D-01, r^2= 7.7D-03
   Bfn.  Coefficient  Atom+Function         Bfn.  Coefficient  Atom+Function  
  ----- ------------  ---------------      ----- ------------  ---------------
     1      1.000160  1 Na s          

 Vector    3  Occ=2.000000D+00  E=-9.488217D+00  Symmetry=a1
              MO Center=  9.6D-18, -3.8D-19,  4.9D-01, r^2= 6.6D-02
   Bfn.  Coefficient  Atom+Function         Bfn.  Coefficient  Atom+Function  
  ----- ------------  ---------------      ----- ------------  ---------------
    21      1.013712  2 Cl s                 22      0.030623  2 Cl s          

 Vector    4  Occ=2.000000D+00  E=-7.256283D+00  Symmetry=a1
              MO Center= -8.3D-17,  1.9D-17,  5.0D-01, r^2= 5.8D-02
   Bfn.  Coefficient  Atom+Function         Bfn.  Coefficient  Atom+Function  
  ----- ------------  ---------------      ----- ------------  ---------------
    26      1.000682  2 Cl pz         

 Vector    5  Occ=2.000000D+00  E=-7.232747D+00  Symmetry=e
              MO Center=  2.9D-18,  2.6D-17,  5.0D-01, r^2= 5.8D-02
   Bfn.  Coefficient  Atom+Function         Bfn.  Coefficient  Atom+Function  
  ----- ------------  ---------------      ----- ------------  ---------------
    25      0.976230  2 Cl py                24      0.219994  2 Cl px         

 Vector    6  Occ=2.000000D+00  E=-7.232747D+00  Symmetry=e
              MO Center= -1.3D-17,  2.9D-18,  5.0D-01, r^2= 5.8D-02
   Bfn.  Coefficient  Atom+Function         Bfn.  Coefficient  Atom+Function  
  ----- ------------  ---------------      ----- ------------  ---------------
    24      0.976230  2 Cl px                25     -0.219994  2 Cl py         

 Vector    7  Occ=2.000000D+00  E=-2.471438D+00  Symmetry=a1
              MO Center=  3.2D-16,  6.6D-17, -6.9D-01, r^2= 2.2D-01
   Bfn.  Coefficient  Atom+Function         Bfn.  Coefficient  Atom+Function  
  ----- ------------  ---------------      ----- ------------  ---------------
     2      0.966469  1 Na s                  7      0.116756  1 Na pz         
    22      0.064693  2 Cl s                 29     -0.063079  2 Cl pz         
    38      0.034265  2 Cl dzz                3      0.029966  1 Na s          

 Vector    8  Occ=2.000000D+00  E=-1.465047D+00  Symmetry=a1
              MO Center=  2.0D-16, -4.1D-18, -7.6D-01, r^2= 3.1D-01
   Bfn.  Coefficient  Atom+Function         Bfn.  Coefficient  Atom+Function  
  ----- ------------  ---------------      ----- ------------  ---------------
     7      0.891795  1 Na pz                 2     -0.223010  1 Na s          
    22      0.170287  2 Cl s                 29     -0.131172  2 Cl pz         
    38      0.049720  2 Cl dzz        

 Vector    9  Occ=2.000000D+00  E=-1.337006D+00  Symmetry=e
              MO Center= -7.2D-18,  3.1D-17, -7.5D-01, r^2= 2.5D-01
   Bfn.  Coefficient  Atom+Function         Bfn.  Coefficient  Atom+Function  
  ----- ------------  ---------------      ----- ------------  ---------------
     6      0.965213  1 Na py                 5     -0.189278  1 Na px         
    37     -0.063810  2 Cl dyz               28      0.054739  2 Cl py         

 Vector   10  Occ=2.000000D+00  E=-1.337006D+00  Symmetry=e
              MO Center= -3.8D-16, -7.1D-17, -7.5D-01, r^2= 2.5D-01
   Bfn.  Coefficient  Atom+Function         Bfn.  Coefficient  Atom+Function  
  ----- ------------  ---------------      ----- ------------  ---------------
     5      0.965213  1 Na px                 6      0.189278  1 Na py         
    35     -0.063810  2 Cl dxz               27      0.054739  2 Cl px         

 Vector   11  Occ=2.000000D+00  E=-7.179631D-01  Symmetry=a1
              MO Center= -2.3D-17,  2.0D-18,  5.5D-01, r^2= 8.8D-01
   Bfn.  Coefficient  Atom+Function         Bfn.  Coefficient  Atom+Function  
  ----- ------------  ---------------      ----- ------------  ---------------
    22      0.550035  2 Cl s                 23      0.524474  2 Cl s          
     7     -0.306037  1 Na pz                 2     -0.186610  1 Na s          
    29      0.067514  2 Cl pz                 3      0.064778  1 Na s          
    38     -0.031183  2 Cl dzz               10      0.027653  1 Na pz         

 Vector   12  Occ=2.000000D+00  E=-3.426408D-01  Symmetry=e
              MO Center=  1.2D-14, -1.8D-16,  4.3D-01, r^2= 1.2D+00
   Bfn.  Coefficient  Atom+Function         Bfn.  Coefficient  Atom+Function  
  ----- ------------  ---------------      ----- ------------  ---------------
    28      0.538611  2 Cl py                31      0.362318  2 Cl py         
    27     -0.343841  2 Cl px                30     -0.231298  2 Cl px         
     6     -0.177005  1 Na py                 5      0.112997  1 Na px         
    37     -0.110039  2 Cl dyz               35      0.070247  2 Cl dxz        
     9      0.053598  1 Na py                18      0.047375  1 Na dyz        

 Vector   13  Occ=2.000000D+00  E=-3.426408D-01  Symmetry=e
              MO Center=  2.8D-16,  5.1D-16,  4.3D-01, r^2= 1.2D+00
   Bfn.  Coefficient  Atom+Function         Bfn.  Coefficient  Atom+Function  
  ----- ------------  ---------------      ----- ------------  ---------------
    27      0.538611  2 Cl px                30      0.362318  2 Cl px         
    28      0.343841  2 Cl py                31      0.231298  2 Cl py         
     5     -0.177005  1 Na px                 6     -0.112997  1 Na py         
    35     -0.110039  2 Cl dxz               37     -0.070247  2 Cl dyz        
     8      0.053598  1 Na px                16      0.047375  1 Na dxz        

 Vector   14  Occ=2.000000D+00  E=-1.875143D-01  Symmetry=a1
              MO Center=  5.2D-17, -2.2D-17,  1.6D-01, r^2= 2.4D+00
   Bfn.  Coefficient  Atom+Function         Bfn.  Coefficient  Atom+Function  
  ----- ------------  ---------------      ----- ------------  ---------------
    29      0.532531  2 Cl pz                32      0.486916  2 Cl pz         
     3     -0.470821  1 Na s                  2      0.264917  1 Na s          
     7      0.239571  1 Na pz                 4      0.119565  1 Na s          
    23      0.089347  2 Cl s                 13      0.082959  1 Na pz         
    38      0.061718  2 Cl dzz               33     -0.051490  2 Cl dxx        

 Vector   15  Occ=0.000000D+00  E=-4.346291D-02  Symmetry=a1
              MO Center= -1.9D-15,  4.0D-15, -1.5D+00, r^2= 7.9D+00
   Bfn.  Coefficient  Atom+Function         Bfn.  Coefficient  Atom+Function  
  ----- ------------  ---------------      ----- ------------  ---------------
     4      0.848982  1 Na s                  3      0.312685  1 Na s          
    10     -0.304061  1 Na pz                32      0.293329  2 Cl pz         
    29      0.262029  2 Cl pz                 7      0.170432  1 Na pz         
     2      0.161331  1 Na s                 22     -0.142123  2 Cl s          
    23     -0.128983  2 Cl s                 14     -0.114770  1 Na dxx        

 Vector   16  Occ=0.000000D+00  E= 6.254899D-03  Symmetry=e
              MO Center=  2.4D-15,  1.7D-15, -1.0D+00, r^2= 1.4D+01
   Bfn.  Coefficient  Atom+Function         Bfn.  Coefficient  Atom+Function  
  ----- ------------  ---------------      ----- ------------  ---------------
    12      0.840639  1 Na py                18     -0.254578  1 Na dyz        
     9      0.200001  1 Na py                28     -0.143399  2 Cl py         
    11     -0.120350  1 Na px                31     -0.067101  2 Cl py         
    16      0.036447  1 Na dxz                8     -0.028633  1 Na px         

 Vector   17  Occ=0.000000D+00  E= 6.254899D-03  Symmetry=e
              MO Center=  1.3D-15,  2.5D-15, -1.0D+00, r^2= 1.4D+01
   Bfn.  Coefficient  Atom+Function         Bfn.  Coefficient  Atom+Function  
  ----- ------------  ---------------      ----- ------------  ---------------
    11      0.840639  1 Na px                16     -0.254578  1 Na dxz        
     8      0.200001  1 Na px                27     -0.143399  2 Cl px         
    12      0.120350  1 Na py                30     -0.067101  2 Cl px         
    18     -0.036447  1 Na dyz                9      0.028633  1 Na py         

 Vector   18  Occ=0.000000D+00  E= 1.609733D-02  Symmetry=a1
              MO Center= -2.2D-15,  4.3D-15,  4.0D-02, r^2= 1.7D+01
   Bfn.  Coefficient  Atom+Function         Bfn.  Coefficient  Atom+Function  
  ----- ------------  ---------------      ----- ------------  ---------------
    13      1.037433  1 Na pz                 4      0.369441  1 Na s          
    22     -0.148640  2 Cl s                 10     -0.142165  1 Na pz         
     3     -0.134035  1 Na s                 19     -0.128021  1 Na dzz        
    14      0.115456  1 Na dxx               17      0.115456  1 Na dyy        
     2     -0.088331  1 Na s                 32     -0.083676  2 Cl pz         

 Vector   19  Occ=0.000000D+00  E= 7.208661D-02  Symmetry=a1
              MO Center=  1.2D-15, -5.1D-15, -2.2D+00, r^2= 1.1D+01
   Bfn.  Coefficient  Atom+Function         Bfn.  Coefficient  Atom+Function  
  ----- ------------  ---------------      ----- ------------  ---------------
     4      1.443337  1 Na s                  3     -1.211425  1 Na s          
    10      1.047115  1 Na pz                13     -0.678156  1 Na pz         
     2     -0.418551  1 Na s                 23     -0.322429  2 Cl s          
    32     -0.162624  2 Cl pz                19     -0.140703  1 Na dzz        
    29     -0.138598  2 Cl pz                 7      0.093854  1 Na pz         

 Vector   20  Occ=0.000000D+00  E= 9.238790D-02  Symmetry=e
              MO Center= -4.2D-15, -2.9D-16, -1.0D+00, r^2= 1.3D+01
   Bfn.  Coefficient  Atom+Function         Bfn.  Coefficient  Atom+Function  
  ----- ------------  ---------------      ----- ------------  ---------------
     9      1.385294  1 Na py                12     -1.064057  1 Na py         
    18     -0.356692  1 Na dyz               31     -0.216335  2 Cl py         
     6      0.198220  1 Na py                28     -0.106949  2 Cl py         
    37     -0.033395  2 Cl dyz        

 Vector   21  Occ=0.000000D+00  E= 9.238790D-02  Symmetry=e
              MO Center=  4.8D-17,  6.5D-17, -1.0D+00, r^2= 1.3D+01
   Bfn.  Coefficient  Atom+Function         Bfn.  Coefficient  Atom+Function  
  ----- ------------  ---------------      ----- ------------  ---------------
     8      1.385294  1 Na px                11     -1.064057  1 Na px         
    16     -0.356692  1 Na dxz               30     -0.216335  2 Cl px         
     5      0.198220  1 Na px                27     -0.106949  2 Cl px         
    35     -0.033395  2 Cl dxz        

 Vector   22  Occ=0.000000D+00  E= 1.508714D-01  Symmetry=b1
              MO Center=  2.2D-16,  1.1D-16, -7.0D-01, r^2= 4.9D+00
   Bfn.  Coefficient  Atom+Function         Bfn.  Coefficient  Atom+Function  
  ----- ------------  ---------------      ----- ------------  ---------------
    14      0.839998  1 Na dxx               17     -0.839998  1 Na dyy        
    33      0.111292  2 Cl dxx               36     -0.111292  2 Cl dyy        

 Vector   23  Occ=0.000000D+00  E= 1.508717D-01  Symmetry=b2
              MO Center= -1.4D-16, -3.3D-15, -7.0D-01, r^2= 4.9D+00
   Bfn.  Coefficient  Atom+Function         Bfn.  Coefficient  Atom+Function  
  ----- ------------  ---------------      ----- ------------  ---------------
    15      1.679995  1 Na dxy               34      0.222586  2 Cl dxy        

 Vector   24  Occ=0.000000D+00  E= 1.520482D-01  Symmetry=a1
              MO Center= -3.9D-15,  4.9D-15,  3.1D-02, r^2= 9.2D+00
   Bfn.  Coefficient  Atom+Function         Bfn.  Coefficient  Atom+Function  
  ----- ------------  ---------------      ----- ------------  ---------------
     3      1.329009  1 Na s                  4     -1.234657  1 Na s          
    10      0.843139  1 Na pz                 2      0.655816  1 Na s          
    13     -0.567747  1 Na pz                14      0.367533  1 Na dxx        
    17      0.367533  1 Na dyy                7      0.354146  1 Na pz         
    23     -0.334812  2 Cl s                 19     -0.331200  1 Na dzz        

 Vector   25  Occ=0.000000D+00  E= 2.346636D-01  Symmetry=e
              MO Center=  9.0D-17, -1.7D-16, -7.1D-01, r^2= 6.4D+00
   Bfn.  Coefficient  Atom+Function         Bfn.  Coefficient  Atom+Function  
  ----- ------------  ---------------      ----- ------------  ---------------
    16      2.210972  1 Na dxz               18     -1.149687  1 Na dyz        
    30     -0.951020  2 Cl px                 8      0.944491  1 Na px         
    31      0.494522  2 Cl py                 9     -0.491127  1 Na py         
    11     -0.299340  1 Na px                 5      0.276121  1 Na px         
    27     -0.199685  2 Cl px                12      0.155654  1 Na py         

 Vector   26  Occ=0.000000D+00  E= 2.346636D-01  Symmetry=e
              MO Center=  9.8D-16,  5.1D-16, -7.1D-01, r^2= 6.4D+00
   Bfn.  Coefficient  Atom+Function         Bfn.  Coefficient  Atom+Function  
  ----- ------------  ---------------      ----- ------------  ---------------
    18      2.210972  1 Na dyz               16      1.149687  1 Na dxz        
    31     -0.951020  2 Cl py                 9      0.944491  1 Na py         
    30     -0.494522  2 Cl px                 8      0.491127  1 Na px         
    12     -0.299340  1 Na py                 6      0.276121  1 Na py         
    28     -0.199685  2 Cl py                11     -0.155654  1 Na px         

 Vector   27  Occ=0.000000D+00  E= 2.567355D-01  Symmetry=a1
              MO Center=  8.3D-17, -9.1D-17, -8.6D-02, r^2= 7.9D+00
   Bfn.  Coefficient  Atom+Function         Bfn.  Coefficient  Atom+Function  
  ----- ------------  ---------------      ----- ------------  ---------------
    23      2.275935  2 Cl s                 10     -1.905659  1 Na pz         
    19     -1.759524  1 Na dzz                3     -1.273042  1 Na s          
     4      0.657664  1 Na s                 14      0.553071  1 Na dxx        
    17      0.553071  1 Na dyy                2     -0.544854  1 Na s          
    32      0.540223  2 Cl pz                13      0.532263  1 Na pz         

 Vector   28  Occ=0.000000D+00  E= 4.666750D-01  Symmetry=a1
              MO Center=  1.3D-17, -6.3D-18, -1.1D+00, r^2= 4.8D+00
   Bfn.  Coefficient  Atom+Function         Bfn.  Coefficient  Atom+Function  
  ----- ------------  ---------------      ----- ------------  ---------------
     3      5.860160  1 Na s                 19     -2.476116  1 Na dzz        
    14     -2.368397  1 Na dxx               17     -2.368397  1 Na dyy        
     2      1.674593  1 Na s                 32      0.869262  2 Cl pz         
    23     -0.568763  2 Cl s                 10      0.430511  1 Na pz         
    13     -0.283600  1 Na pz                 7      0.242519  1 Na pz         

 Vector   29  Occ=0.000000D+00  E= 6.146304D-01  Symmetry=e
              MO Center= -2.5D-18,  5.9D-19,  5.7D-01, r^2= 1.6D+00
   Bfn.  Coefficient  Atom+Function         Bfn.  Coefficient  Atom+Function  
  ----- ------------  ---------------      ----- ------------  ---------------
    35      1.038396  2 Cl dxz               30      1.004819  2 Cl px         
    37      0.845338  2 Cl dyz               31      0.818004  2 Cl py         
    27     -0.546765  2 Cl px                16     -0.539046  1 Na dxz        
    28     -0.445111  2 Cl py                18     -0.438827  1 Na dyz        
     8     -0.419319  1 Na px                 9     -0.341359  1 Na py         

 Vector   30  Occ=0.000000D+00  E= 6.146304D-01  Symmetry=e
              MO Center=  2.9D-17, -2.5D-17,  5.7D-01, r^2= 1.6D+00
   Bfn.  Coefficient  Atom+Function         Bfn.  Coefficient  Atom+Function  
  ----- ------------  ---------------      ----- ------------  ---------------
    37      1.038396  2 Cl dyz               31      1.004819  2 Cl py         
    35     -0.845338  2 Cl dxz               30     -0.818004  2 Cl px         
    28     -0.546765  2 Cl py                18     -0.539046  1 Na dyz        
    27      0.445111  2 Cl px                16      0.438827  1 Na dxz        
     9     -0.419319  1 Na py                 8      0.341359  1 Na px         

 Vector   31  Occ=0.000000D+00  E= 6.695459D-01  Symmetry=a1
              MO Center= -3.9D-17, -5.1D-17,  5.4D-01, r^2= 3.1D+00
   Bfn.  Coefficient  Atom+Function         Bfn.  Coefficient  Atom+Function  
  ----- ------------  ---------------      ----- ------------  ---------------
    32      1.777840  2 Cl pz                 3      1.542467  1 Na s          
    29     -1.216928  2 Cl pz                19     -0.872367  1 Na dzz        
     2      0.663772  1 Na s                  4     -0.654148  1 Na s          
     7     -0.388421  1 Na pz                38      0.374761  2 Cl dzz        
    22      0.303651  2 Cl s                 23     -0.276123  2 Cl s          

 Vector   32  Occ=0.000000D+00  E= 7.546419D-01  Symmetry=b2
              MO Center=  3.8D-17,  2.7D-17,  4.0D-01, r^2= 1.3D+00
   Bfn.  Coefficient  Atom+Function         Bfn.  Coefficient  Atom+Function  
  ----- ------------  ---------------      ----- ------------  ---------------
    34      1.743872  2 Cl dxy               15     -0.517928  1 Na dxy        

 Vector   33  Occ=0.000000D+00  E= 7.546498D-01  Symmetry=b1
              MO Center= -6.1D-15, -9.4D-15,  4.0D-01, r^2= 1.3D+00
   Bfn.  Coefficient  Atom+Function         Bfn.  Coefficient  Atom+Function  
  ----- ------------  ---------------      ----- ------------  ---------------
    33      0.871936  2 Cl dxx               36     -0.871936  2 Cl dyy        
    14     -0.258963  1 Na dxx               17      0.258963  1 Na dyy        

 Vector   34  Occ=0.000000D+00  E= 8.357271D-01  Symmetry=e
              MO Center= -1.5D-17,  3.8D-18,  4.4D-01, r^2= 2.8D+00
   Bfn.  Coefficient  Atom+Function         Bfn.  Coefficient  Atom+Function  
  ----- ------------  ---------------      ----- ------------  ---------------
    30      1.942349  2 Cl px                16     -1.236555  1 Na dxz        
    35     -1.169747  2 Cl dxz                8     -1.105577  1 Na px         
    27     -0.992404  2 Cl px                 5     -0.470860  1 Na px         
    11      0.276751  1 Na px                31     -0.221010  2 Cl py         
    24     -0.191424  2 Cl px                18      0.140701  1 Na dyz        

 Vector   35  Occ=0.000000D+00  E= 8.357271D-01  Symmetry=e
              MO Center= -8.2D-18,  4.3D-17,  4.4D-01, r^2= 2.8D+00
   Bfn.  Coefficient  Atom+Function         Bfn.  Coefficient  Atom+Function  
  ----- ------------  ---------------      ----- ------------  ---------------
    31      1.942349  2 Cl py                18     -1.236555  1 Na dyz        
    37     -1.169747  2 Cl dyz                9     -1.105577  1 Na py         
    28     -0.992404  2 Cl py                 6     -0.470860  1 Na py         
    12      0.276751  1 Na py                30      0.221010  2 Cl px         
    25     -0.191424  2 Cl py                16     -0.140701  1 Na dxz        

 Vector   36  Occ=0.000000D+00  E= 9.539274D-01  Symmetry=a1
              MO Center= -6.3D-18, -1.3D-17,  6.8D-01, r^2= 3.5D+00
   Bfn.  Coefficient  Atom+Function         Bfn.  Coefficient  Atom+Function  
  ----- ------------  ---------------      ----- ------------  ---------------
    23      4.769870  2 Cl s                  3     -2.151055  1 Na s          
    22     -1.904660  2 Cl s                 10     -1.853218  1 Na pz         
    21     -1.549244  2 Cl s                 38     -0.947267  2 Cl dzz        
     2     -0.748055  1 Na s                 19     -0.683757  1 Na dzz        
    32      0.593055  2 Cl pz                 4      0.487167  1 Na s          

 Vector   37  Occ=0.000000D+00  E= 1.255063D+00  Symmetry=a1
              MO Center= -1.4D-18, -8.5D-18,  1.8D-01, r^2= 2.7D+00
   Bfn.  Coefficient  Atom+Function         Bfn.  Coefficient  Atom+Function  
  ----- ------------  ---------------      ----- ------------  ---------------
     3      4.630559  1 Na s                 23     -3.375654  2 Cl s          
     2      2.333216  1 Na s                 19     -1.363713  1 Na dzz        
    32      1.341444  2 Cl pz                22      1.304076  2 Cl s          
    14     -1.223132  1 Na dxx               17     -1.223132  1 Na dyy        
    21      1.112412  2 Cl s                 10      0.738623  1 Na pz         

 Vector   38  Occ=0.000000D+00  E= 3.158740D+00  Symmetry=a1
              MO Center= -4.6D-18,  2.8D-18,  5.0D-01, r^2= 1.7D+00
   Bfn.  Coefficient  Atom+Function         Bfn.  Coefficient  Atom+Function  
  ----- ------------  ---------------      ----- ------------  ---------------
    23      4.963218  2 Cl s                  3     -2.331442  1 Na s          
    38     -2.240070  2 Cl dzz               33     -2.104804  2 Cl dxx        
    36     -2.104804  2 Cl dyy               22      1.392192  2 Cl s          
    10     -1.017350  1 Na pz                 2     -0.872778  1 Na s          
    14      0.501743  1 Na dxx               17      0.501743  1 Na dyy        


 center of mass
 --------------
 x =   0.00000000 y =   0.00000000 z =  -0.00911367

 moments of inertia (a.u.)
 ------------------
          79.721070261053           0.000000000000           0.000000000000
           0.000000000000          79.721070261053           0.000000000000
           0.000000000000           0.000000000000           0.000000000000

     Multipole analysis of the density
     ---------------------------------

     L   x y z        total         alpha         beta         nuclear
     -   - - -        -----         -----         ----         -------
     0   0 0 0     -0.000000    -14.000000    -14.000000     28.000000

     1   1 0 0      0.000000      0.000000      0.000000      0.000000
     1   0 1 0      0.000000      0.000000      0.000000      0.000000
     1   0 0 1     -1.270667     -0.635334     -0.635334      0.000000

     2   2 0 0    -15.090125     -7.545063     -7.545063      0.000000
     2   1 1 0     -0.000000     -0.000000     -0.000000      0.000000
     2   1 0 1      0.000000      0.000000      0.000000      0.000000
     2   0 2 0    -15.090125     -7.545063     -7.545063      0.000000
     2   0 1 1      0.000000      0.000000      0.000000      0.000000
     2   0 0 2    -14.467417    -26.426070    -26.426070     38.384723


 Parallel integral file used       2 records with       0 large values


 Task  times  cpu:        2.7s     wall:        2.7s
 Summary of allocated global arrays
-----------------------------------
  No active global arrays



                         GA Statistics for process    0
                         ------------------------------

       create   destroy   get      put      acc     scatter   gather  read&inc
calls:  211      211     7161     2647     1476        0        0      487     
number of processes/call 0.00e+00 0.00e+00 0.00e+00 0.00e+00 0.00e+00
bytes total:             8.60e+06 2.63e+06 5.34e+06 0.00e+00 0.00e+00 3.90e+03
bytes remote:            0.00e+00 0.00e+00 0.00e+00 0.00e+00 0.00e+00 0.00e+00
Max memory consumed for GA by this process: 450528 bytes
MA_summarize_allocated_blocks: starting scan ...
MA_summarize_allocated_blocks: scan completed: 0 heap blocks, 0 stack blocks
MA usage statistics:

	allocation statistics:
					      heap	     stack
					      ----	     -----
	current number of blocks	         0	         0
	maximum number of blocks	        22	        57
	current total bytes		         0	         0
	maximum total bytes		   5429984	  22511272
	maximum total K-bytes		      5430	     22512
	maximum total M-bytes		         6	        23


                                NWChem Input Module
                                -------------------





                                     CITATION
                                     --------
                Please cite the following reference when publishing
                           results obtained with NWChem:

                 M. Valiev, E.J. Bylaska, N. Govind, K. Kowalski,
              T.P. Straatsma, H.J.J. van Dam, D. Wang, J. Nieplocha,
                        E. Apra, T.L. Windus, W.A. de Jong
                 "NWChem: a comprehensive and scalable open-source
                  solution for large scale molecular simulations"
                      Comput. Phys. Commun. 181, 1477 (2010)
                           doi:10.1016/j.cpc.2010.04.018

                                      AUTHORS
                                      -------
     E. Apra, E. J. Bylaska, N. Govind, K. Kowalski, M. Valiev, W. A. de Jong,
      T. P. Straatsma, H. J. J. van Dam, D. Wang, T. L. Windus, N. P. Bauman,
       A. Panyala, J. Hammond, J. Autschbach, K. Bhaskaran-Nair, J. Brabec,
    K. Lopata, S. A. Fischer, S. Krishnamoorthy, M. Jacquelin, W. Ma, M. Klemm,
       O. Villa, Y. Chen, V. Anisimov, F. Aquino, S. Hirata, M. T. Hackler,
           Eric Hermes, L. Jensen, J. E. Moore, J. C. Becca, V. Konjkov,
            D. Mejia-Rodriguez, T. Risthaus, M. Malagoli, A. Marenich,
   A. Otero-de-la-Roza, J. Mullin, P. Nichols, R. Peverati, J. Pittner, Y. Zhao,
        P.-D. Fan, A. Fonari, M. J. Williamson, R. J. Harrison, J. R. Rehr,
      M. Dupuis, D. Silverstein, D. M. A. Smith, J. Nieplocha, V. Tipparaju,
      M. Krishnan, B. E. Van Kuiken, A. Vazquez-Mayagoitia, M. Swart, Q. Wu,
   T. Van Voorhis, A. A. Auer, M. Nooijen, L. D. Crosby, E. Brown, G. Cisneros,
     G. I. Fann, H. Fruchtl, J. Garza, K. Hirao, R. A. Kendall, J. A. Nichols,
       K. Tsemekhman, K. Wolinski, J. Anchell, D. E. Bernholdt, P. Borowski,
       T. Clark, D. Clerc, H. Dachsel, M. J. O. Deegan, K. Dyall, D. Elwood,
      E. Glendening, M. Gutowski, A. C. Hess, J. Jaffe, B. G. Johnson, J. Ju,
        R. Kobayashi, R. Kutteh, Z. Lin, R. Littlefield, X. Long, B. Meng,
      T. Nakajima, S. Niu, L. Pollack, M. Rosing, K. Glaesemann, G. Sandrone,
      M. Stave, H. Taylor, G. Thomas, J. H. van Lenthe, A. T. Wong, Z. Zhang.

 Total times  cpu:        2.7s     wall:        2.7s
