 argument  1 = nacl_aug-cc-pvtz.inp
                                         
                                         


             Northwest Computational Chemistry Package (NWChem) 7.0.0
             --------------------------------------------------------


                    Environmental Molecular Sciences Laboratory
                       Pacific Northwest National Laboratory
                                Richland, WA 99352

                              Copyright (c) 1994-2019
                       Pacific Northwest National Laboratory
                            Battelle Memorial Institute

             NWChem is an open-source computational chemistry package
                        distributed under the terms of the
                      Educational Community License (ECL) 2.0
             A copy of the license is included with this distribution
                              in the LICENSE.TXT file

                                  ACKNOWLEDGMENT
                                  --------------

            This software and its documentation were developed at the
            EMSL at Pacific Northwest National Laboratory, a multiprogram
            national laboratory, operated for the U.S. Department of Energy
            by Battelle under Contract Number DE-AC05-76RL01830. Support
            for this work was provided by the Department of Energy Office
            of Biological and Environmental Research, Office of Basic
            Energy Sciences, and the Office of Advanced Scientific Computing.


           Job information
           ---------------

    hostname        = Amanda-Dewyers-MacBook-Air.local
    program         = nwchem
    date            = Fri Sep 11 17:07:01 2020

    compiled        = Fri_Jul_03_06:05:09_2020
    source          = /private/tmp/nwchem-20200703-71421-tc8c0i/nwchem-7.0.0
    nwchem branch   = 7.0.0
    nwchem revision = 2c9a1c7c
    ga revision     = 5.7.1
    use scalapack   = T
    input           = nacl_aug-cc-pvtz.inp
    prefix          = nacl_aug-cc-pvtz.
    data base       = ./nacl_aug-cc-pvtz.db
    status          = startup
    nproc           =        1
    time left       =     -1s



           Memory information
           ------------------

    heap     =   13107196 doubles =    100.0 Mbytes
    stack    =   13107201 doubles =    100.0 Mbytes
    global   =   26214400 doubles =    200.0 Mbytes (distinct from heap & stack)
    total    =   52428797 doubles =    400.0 Mbytes
    verify   = yes
    hardfail = no 


           Directory information
           ---------------------

  0 permanent = .
  0 scratch   = .




                                NWChem Input Module
                                -------------------


                                     test case
                                     ---------
 ORDER OF PRIMARY AXIS IS BEING SET TO 4
 C4V symmetry detected

          ------
          auto-z
          ------
  no constraints, skipping    0.0000000000000000     
  no constraints, skipping    0.0000000000000000     


                             Geometry "geometry" -> ""
                             -------------------------

 Output coordinates in a.u. (scale by  1.000000000 to convert to a.u.)

  No.       Tag          Charge          X              Y              Z
 ---- ---------------- ---------- -------------- -------------- --------------
    1 Na                  11.0000     0.00000000     0.00000000    -1.45555396
    2 Cl                  17.0000     0.00000000     0.00000000     0.94182903

      Atomic Mass 
      ----------- 

      Na                22.989800
      Cl                34.968850


 Effective nuclear repulsion energy (a.u.)      78.0017214429

            Nuclear Dipole moment (a.u.) 
            ----------------------------
        X                 Y               Z
 ---------------- ---------------- ----------------
     0.0000000000     0.0000000000     0.0000000000

      Symmetry information
      --------------------

 Group name             C4v       
 Group number             18
 Group order               8
 No. of unique centers     2

      Symmetry unique atoms

     1    2



                                Z-matrix (autoz)
                                -------- 

 Units are Angstrom for bonds and degrees for angles

      Type          Name      I     J     K     L     M      Value
      ----------- --------  ----- ----- ----- ----- ----- ----------
    1 Stretch                  1     2                       1.26864


            XYZ format geometry
            -------------------
     2
 geometry
 Na                    0.00000000     0.00000000    -0.77024604
 Cl                    0.00000000     0.00000000     0.49839450

 ==============================================================================
                                internuclear distances
 ------------------------------------------------------------------------------
       center one      |      center two      | atomic units |       a.u.
 ------------------------------------------------------------------------------
    2 Cl               |   1 Na               |     2.39738  |     2.39738
 ------------------------------------------------------------------------------
                         number of included internuclear distances:          1
 ==============================================================================



  library name resolved from: .nwchemrc
  library file name is: </usr/local/Cellar/nwchem/7.0.0_2/share/nwchem/libraries/>
  


 Summary of "ao basis" -> "" (cartesian)
 ------------------------------------------------------------------------------
       Tag                 Description            Shells   Functions and Types
 ---------------- ------------------------------  ------  ---------------------
 *                        aug-cc-pvtz                 on all atoms 



                                 NWChem DFT Module
                                 -----------------


                                     test case


                      Basis "ao basis" -> "ao basis" (cartesian)
                      -----
  Na (Sodium)
  -----------
            Exponent  Coefficients 
       -------------- ---------------------------------------------------------
  1 S  4.23000000E+05  0.000018
  1 S  6.33400000E+04  0.000140
  1 S  1.44100000E+04  0.000738
  1 S  4.07700000E+03  0.003112
  1 S  1.32800000E+03  0.011208
  1 S  4.78600000E+02  0.035283
  1 S  1.86200000E+02  0.095990
  1 S  7.69200000E+01  0.213735
  1 S  3.33200000E+01  0.348688
  1 S  1.50000000E+01  0.324566
  1 S  6.86900000E+00  0.112633
  1 S  2.68300000E+00  0.007068
  1 S  1.10900000E+00  0.000598
  1 S  6.01500000E-02 -0.000005

  2 S  4.23000000E+05 -0.000004
  2 S  6.33400000E+04 -0.000034
  2 S  1.44100000E+04 -0.000180
  2 S  4.07700000E+03 -0.000764
  2 S  1.32800000E+03 -0.002752
  2 S  4.78600000E+02 -0.008860
  2 S  1.86200000E+02 -0.024794
  2 S  7.69200000E+01 -0.060600
  2 S  3.33200000E+01 -0.116446
  2 S  1.50000000E+01 -0.162437
  2 S  6.86900000E+00 -0.043889
  2 S  2.68300000E+00  0.337917
  2 S  1.10900000E+00  0.561347
  2 S  6.01500000E-02  0.004068

  3 S  4.23000000E+05  0.000001
  3 S  6.33400000E+04  0.000005
  3 S  1.44100000E+04  0.000027
  3 S  4.07700000E+03  0.000115
  3 S  1.32800000E+03  0.000415
  3 S  4.78600000E+02  0.001330
  3 S  1.86200000E+02  0.003756
  3 S  7.69200000E+01  0.009140
  3 S  3.33200000E+01  0.017986
  3 S  1.50000000E+01  0.025148
  3 S  6.86900000E+00  0.007635
  3 S  2.68300000E+00 -0.061459
  3 S  1.10900000E+00 -0.115721
  3 S  6.01500000E-02  0.626406

  4 S  4.54000000E-01  1.000000

  5 S  2.38200000E-02  1.000000

  6 S  6.65000000E-03  1.000000

  7 P  2.43300000E+02  0.002244
  7 P  5.73900000E+01  0.017400
  7 P  1.81000000E+01  0.077413
  7 P  6.57500000E+00  0.219102
  7 P  2.52100000E+00  0.378522
  7 P  9.60700000E-01  0.394902
  7 P  3.51200000E-01  0.160424
  7 P  9.82700000E-02  0.002333

  8 P  2.43300000E+02 -0.000222
  8 P  5.73900000E+01 -0.001743
  8 P  1.81000000E+01 -0.007755
  8 P  6.57500000E+00 -0.022519
  8 P  2.52100000E+00 -0.038433
  8 P  9.60700000E-01 -0.045018
  8 P  3.51200000E-01 -0.019213
  8 P  9.82700000E-02  0.182697

  9 P  3.73400000E-02  1.000000

 10 P  1.50000000E-02  1.000000

 11 P  7.00000000E-03  1.000000

 12 D  1.36700000E-01  1.000000

 13 D  6.36000000E-02  1.000000

 14 D  2.23000000E-02  1.000000

 15 F  1.39700000E-01  1.000000

 16 F  7.14000000E-02  1.000000

  Cl (Chlorine)
  -------------
            Exponent  Coefficients 
       -------------- ---------------------------------------------------------
  1 S  4.56100000E+05  0.000049
  1 S  6.83300000E+04  0.000383
  1 S  1.55500000E+04  0.002009
  1 S  4.40500000E+03  0.008386
  1 S  1.43900000E+03  0.029470
  1 S  5.20400000E+02  0.087833
  1 S  2.03100000E+02  0.211473
  1 S  8.39600000E+01  0.365364
  1 S  3.62000000E+01  0.340884
  1 S  1.58300000E+01  0.102133
  1 S  6.33400000E+00  0.003117
  1 S  2.69400000E+00  0.001058
  1 S  4.31300000E-01  0.000156

  2 S  4.56100000E+05 -0.000014
  2 S  6.83300000E+04 -0.000107
  2 S  1.55500000E+04 -0.000565
  2 S  4.40500000E+03 -0.002361
  2 S  1.43900000E+03 -0.008459
  2 S  5.20400000E+02 -0.025964
  2 S  2.03100000E+02 -0.068636
  2 S  8.39600000E+01 -0.141874
  2 S  3.62000000E+01 -0.199319
  2 S  1.58300000E+01 -0.019566
  2 S  6.33400000E+00  0.499741
  2 S  2.69400000E+00  0.563736
  2 S  4.31300000E-01 -0.008351

  3 S  4.56100000E+05  0.000004
  3 S  6.83300000E+04  0.000032
  3 S  1.55500000E+04  0.000171
  3 S  4.40500000E+03  0.000714
  3 S  1.43900000E+03  0.002567
  3 S  5.20400000E+02  0.007886
  3 S  2.03100000E+02  0.021087
  3 S  8.39600000E+01  0.044226
  3 S  3.62000000E+01  0.065167
  3 S  1.58300000E+01  0.006030
  3 S  6.33400000E+00 -0.206495
  3 S  2.69400000E+00 -0.405871
  3 S  4.31300000E-01  0.725661

  4 S  9.76800000E-01  1.000000

  5 S  1.62500000E-01  1.000000

  6 S  5.91000000E-02  1.000000

  7 P  6.63300000E+02  0.002404
  7 P  1.56800000E+02  0.019215
  7 P  4.99800000E+01  0.088510
  7 P  1.84200000E+01  0.256020
  7 P  7.24000000E+00  0.436927
  7 P  2.92200000E+00  0.350334
  7 P  3.81800000E-01 -0.004584

  8 P  6.63300000E+02 -0.000652
  8 P  1.56800000E+02 -0.005194
  8 P  4.99800000E+01 -0.024694
  8 P  1.84200000E+01 -0.072817
  8 P  7.24000000E+00 -0.134030
  8 P  2.92200000E+00 -0.094774
  8 P  3.81800000E-01  0.564667

  9 P  1.02200000E+00  1.000000

 10 P  1.30100000E-01  1.000000

 11 P  4.19000000E-02  1.000000

 12 D  1.04600000E+00  1.000000

 13 D  3.44000000E-01  1.000000

 14 D  1.35000000E-01  1.000000

 15 F  7.06000000E-01  1.000000

 16 F  3.12000000E-01  1.000000



 Summary of "ao basis" -> "ao basis" (cartesian)
 ------------------------------------------------------------------------------
       Tag                 Description            Shells   Functions and Types
 ---------------- ------------------------------  ------  ---------------------
 Na                       aug-cc-pvtz               16       59   6s5p3d2f
 Cl                       aug-cc-pvtz               16       59   6s5p3d2f




 Summary of "ao basis" -> "ao basis" (cartesian)
 ------------------------------------------------------------------------------
       Tag                 Description            Shells   Functions and Types
 ---------------- ------------------------------  ------  ---------------------
 Na                       aug-cc-pvtz               16       59   6s5p3d2f
 Cl                       aug-cc-pvtz               16       59   6s5p3d2f


      Symmetry analysis of basis
      --------------------------

        a1         42
        a2          0
        b1         10
        b2         10
        e          56

  Caching 1-el integrals 

            General Information
            -------------------
          SCF calculation type: DFT
          Wavefunction type:  closed shell.
          No. of atoms     :     2
          No. of electrons :    28
           Alpha electrons :    14
            Beta electrons :    14
          Charge           :     0
          Spin multiplicity:     1
          Use of symmetry is: on ; symmetry adaption is: on 
          Maximum number of iterations:  30
          AO basis - number of functions:   118
                     number of shells:    32
          Convergence on energy requested:  1.00D-06
          Convergence on density requested:  1.00D-05
          Convergence on gradient requested:  5.00D-04

              XC Information
              --------------
                         B3LYP Method XC Potential
                     Hartree-Fock (Exact) Exchange  0.200          
                        Slater Exchange Functional  0.800 local    
                    Becke 1988 Exchange Functional  0.720 non-local
              Lee-Yang-Parr Correlation Functional  0.810          
                  VWN I RPA Correlation Functional  0.190 local    

             Grid Information
             ----------------
          Grid used for XC integration:  medium    
          Radial quadrature: Mura-Knowles        
          Angular quadrature: Lebedev. 
          Tag              B.-S. Rad. Rad. Pts. Rad. Cut. Ang. Pts.
          ---              ---------- --------- --------- ---------
          Na                  1.80       88          19.0       434
          Cl                  1.00       88          13.0       590
          Grid pruning is: on 
          Number of quadrature shells:   176
          Spatial weights used:  Erf1

          Convergence Information
          -----------------------
          Convergence aids based upon iterative change in 
          total energy or number of iterations. 
          Levelshifting, if invoked, occurs when the 
          HOMO/LUMO gap drops below (HL_TOL):  1.00D-02
          DIIS, if invoked, will attempt to extrapolate 
          using up to (NFOCK): 10 stored Fock matrices.

                    Damping( 0%)  Levelshifting(0.5)       DIIS
                  --------------- ------------------- ---------------
          dE  on:    start            ASAP                start   
          dE off:    2 iters         30 iters            30 iters 


      Screening Tolerance Information
      -------------------------------
          Density screening/tol_rho:  1.00D-10
          AO Gaussian exp screening on grid/accAOfunc:  14
          CD Gaussian exp screening on grid/accCDfunc:  20
          XC Gaussian exp screening on grid/accXCfunc:  20
          Schwarz screening/accCoul:  1.00D-08


 WARNING : Found     1 linear dependencies 
 S eigenvalue threshold:     1.00000E-05
 Smallest S eigenvalue :     9.33006E-06
 Largest  S eigenvalue :     9.33006E-06


 !! The overlap matrix has   1 vectors deemed linearly dependent with
    eigenvalues:
 9.33D-06


      Superposition of Atomic Density Guess
      -------------------------------------

 Sum of atomic energies:        -621.34460932

      Non-variational initial energy
      ------------------------------

 Total energy =    -622.378288
 1-e energy   =   -1015.121059
 2-e energy   =     314.741049
 HOMO         =      -0.239198
 LUMO         =      -0.027047


      Symmetry analysis of molecular orbitals - initial
      -------------------------------------------------

  Numbering of irreducible representations: 

     1 a1          2 a2          3 b1          4 b2          5 e       

  Orbital symmetries:

     1 a1          2 a1          3 a1          4 a1          5 e       
     6 e           7 a1          8 a1          9 e          10 e       
    11 a1         12 e          13 e          14 a1         15 a1      
    16 e          17 e          18 a1         19 a1         20 e       
    21 e          22 a1         23 e          24 e       

   Time after variat. SCF:      7.1
   Time prior to 1st pass:      7.1

 Integral file          = ./nacl_aug-cc-pvtz.aoints.0
 Record size in doubles =  65536        No. of integs per rec  =  43688
 Max. records in memory =    126        Max. records in file   = 183510
 No. of bits per label  =      8        No. of bits per value  =     64


 #quartets = 1.397D+05 #integrals = 6.478D+06 #direct =  0.0% #cached =100.0%


 Grid_pts file          = ./nacl_aug-cc-pvtz.gridpts.0
 Record size in doubles =  12289        No. of grid_pts per rec  =   3070
 Max. records in memory =     39        Max. recs in file   =    978557

 Grid integrated density:      27.940819355337
 Requested integration accuracy:   0.10E-05

           Memory utilization after 1st SCF pass: 
           Heap Space remaining (MW):        4.36             4364732
          Stack Space remaining (MW):       13.11            13106500

   convergence    iter        energy       DeltaE   RMS-Dens  Diis-err    time
 ---------------- ----- ----------------- --------- --------- ---------  ------
 d= 0,ls=0.0,diis     1   -621.6811044190 -7.00D+02  5.77D-02  7.51D-01    13.9
 d= 0,ls=0.0,diis     2   -621.6967916663 -1.57D-02  2.24D-02  7.21D-01    14.1
 d= 0,ls=0.0,diis     3   -621.7878250090 -9.10D-02  7.02D-03  1.09D-01    14.3
 d= 0,ls=0.0,diis     4   -621.8038313704 -1.60D-02  4.83D-03  9.73D-03    14.6
 d= 0,ls=0.0,diis     5   -621.8047745242 -9.43D-04  3.26D-04  3.77D-05    14.8
  Resetting Diis
 d= 0,ls=0.0,diis     6   -621.8047779300 -3.41D-06  1.15D-04  7.56D-06    15.1
 d= 0,ls=0.0,diis     7   -621.8047792139 -1.28D-06  1.90D-05  1.61D-07    15.3
 d= 0,ls=0.0,diis     8   -621.8047792144 -5.86D-10  7.55D-06  1.43D-07    15.6


         Total DFT energy =     -621.804779214440
      One electron energy =    -1015.888128766336
           Coulomb energy =      359.109718732685
    Exchange-Corr. energy =      -43.028090623717
 Nuclear repulsion energy =       78.001721442928

 Numeric. integr. density =       28.000015694181

     Total iterative time =      8.5s



                  Occupations of the irreducible representations
                  ----------------------------------------------

                     irrep           alpha         beta
                     --------     --------     --------
                     a1                8.0          8.0
                     a2                0.0          0.0
                     b1                0.0          0.0
                     b2                0.0          0.0
                     e                 6.0          6.0


                       DFT Final Molecular Orbital Analysis
                       ------------------------------------

 Vector    1  Occ=2.000000D+00  E=-1.015586D+02  Symmetry=a1
              MO Center=  1.0D-20, -1.4D-20,  5.0D-01, r^2= 3.1D-03
   Bfn.  Coefficient  Atom+Function         Bfn.  Coefficient  Atom+Function  
  ----- ------------  ---------------      ----- ------------  ---------------
    60      1.001445  2 Cl s                 64     -0.034270  2 Cl s          

 Vector    2  Occ=2.000000D+00  E=-3.859819D+01  Symmetry=a1
              MO Center= -2.3D-18,  9.7D-19, -7.7D-01, r^2= 7.7D-03
   Bfn.  Coefficient  Atom+Function         Bfn.  Coefficient  Atom+Function  
  ----- ------------  ---------------      ----- ------------  ---------------
     1      1.003155  1 Na s                  3      0.082522  1 Na s          
    64     -0.052005  2 Cl s                 12      0.043888  1 Na pz         
    65      0.040142  2 Cl s                 33     -0.027047  1 Na dzz        
     2      0.026506  1 Na s          

 Vector    3  Occ=2.000000D+00  E=-9.484864D+00  Symmetry=a1
              MO Center=  6.4D-17,  2.0D-17,  4.9D-01, r^2= 6.6D-02
   Bfn.  Coefficient  Atom+Function         Bfn.  Coefficient  Atom+Function  
  ----- ------------  ---------------      ----- ------------  ---------------
    61      0.908212  2 Cl s                 63      0.109763  2 Cl s          

 Vector    4  Occ=2.000000D+00  E=-7.253154D+00  Symmetry=a1
              MO Center= -2.1D-16, -9.0D-17,  5.0D-01, r^2= 5.8D-02
   Bfn.  Coefficient  Atom+Function         Bfn.  Coefficient  Atom+Function  
  ----- ------------  ---------------      ----- ------------  ---------------
    68      1.017233  2 Cl pz                71      0.105457  2 Cl pz         
   101     -0.047416  2 Cl fxxz             106     -0.047416  2 Cl fyyz       
    77      0.046231  2 Cl pz               108     -0.042076  2 Cl fzzz       
   118     -0.039992  2 Cl fzzz              74      0.036418  2 Cl pz         
   111     -0.035647  2 Cl fxxz             116     -0.035647  2 Cl fyyz       

 Vector    5  Occ=2.000000D+00  E=-7.232079D+00  Symmetry=e
              MO Center= -7.3D-18, -3.3D-17,  5.0D-01, r^2= 5.8D-02
   Bfn.  Coefficient  Atom+Function         Bfn.  Coefficient  Atom+Function  
  ----- ------------  ---------------      ----- ------------  ---------------
    67      0.930545  2 Cl py                66     -0.402622  2 Cl px         
    70      0.086950  2 Cl py                69     -0.037621  2 Cl px         
   100     -0.035914  2 Cl fxxy             105     -0.035913  2 Cl fyyy       
    73      0.034962  2 Cl py               107     -0.033034  2 Cl fyzz       
   117     -0.027962  2 Cl fyzz             110     -0.025499  2 Cl fxxy       

 Vector    6  Occ=2.000000D+00  E=-7.232079D+00  Symmetry=e
              MO Center=  1.3D-16,  5.8D-17,  5.0D-01, r^2= 5.8D-02
   Bfn.  Coefficient  Atom+Function         Bfn.  Coefficient  Atom+Function  
  ----- ------------  ---------------      ----- ------------  ---------------
    66      0.930545  2 Cl px                67      0.402622  2 Cl py         
    69      0.086950  2 Cl px                70      0.037621  2 Cl py         
    99     -0.035913  2 Cl fxxx             102     -0.035914  2 Cl fxyy       
    72      0.034962  2 Cl px               104     -0.033034  2 Cl fxzz       
   114     -0.027962  2 Cl fxzz             109     -0.025499  2 Cl fxxx       

 Vector    7  Occ=2.000000D+00  E=-2.460373D+00  Symmetry=a1
              MO Center= -5.2D-17, -6.8D-16, -6.9D-01, r^2= 2.2D-01
   Bfn.  Coefficient  Atom+Function         Bfn.  Coefficient  Atom+Function  
  ----- ------------  ---------------      ----- ------------  ---------------
     2      0.739747  1 Na s                  4      0.251686  1 Na s          
    64      0.218950  2 Cl s                 12     -0.188640  1 Na pz         
    71      0.104385  2 Cl pz                68      0.102644  2 Cl pz         
     3     -0.091674  1 Na s                 74     -0.077835  2 Cl pz         
   108     -0.076943  2 Cl fzzz              65      0.072790  2 Cl s          

 Vector    8  Occ=2.000000D+00  E=-1.460236D+00  Symmetry=a1
              MO Center=  2.4D-18,  1.1D-18, -7.5D-01, r^2= 3.0D-01
   Bfn.  Coefficient  Atom+Function         Bfn.  Coefficient  Atom+Function  
  ----- ------------  ---------------      ----- ------------  ---------------
     9      1.150045  1 Na pz                 3      0.591753  1 Na s          
    12      0.445644  1 Na pz                64     -0.437723  2 Cl s          
    65      0.243458  2 Cl s                  5      0.226560  1 Na s          
    28     -0.198056  1 Na dxx               31     -0.198056  1 Na dyy        
    33     -0.177274  1 Na dzz               68      0.154416  2 Cl pz         

 Vector    9  Occ=2.000000D+00  E=-1.329430D+00  Symmetry=e
              MO Center=  1.4D-16,  4.6D-18, -7.5D-01, r^2= 2.5D-01
   Bfn.  Coefficient  Atom+Function         Bfn.  Coefficient  Atom+Function  
  ----- ------------  ---------------      ----- ------------  ---------------
     7      1.132438  1 Na px                10      0.320211  1 Na px         
    75     -0.307408  2 Cl px                 8      0.304661  1 Na py         
    24      0.217034  1 Na dxz               95      0.188855  2 Cl dxz        
    13      0.088024  1 Na px                11      0.086147  1 Na py         
   104      0.084953  2 Cl fxzz              76     -0.082702  2 Cl py         

 Vector   10  Occ=2.000000D+00  E=-1.329430D+00  Symmetry=e
              MO Center= -1.1D-16,  2.8D-16, -7.5D-01, r^2= 2.5D-01
   Bfn.  Coefficient  Atom+Function         Bfn.  Coefficient  Atom+Function  
  ----- ------------  ---------------      ----- ------------  ---------------
     8      1.132438  1 Na py                11      0.320211  1 Na py         
    76     -0.307408  2 Cl py                 7     -0.304661  1 Na px         
    26      0.217034  1 Na dyz               97      0.188855  2 Cl dyz        
    14      0.088024  1 Na py                10     -0.086147  1 Na px         
   107      0.084953  2 Cl fyzz              75      0.082702  2 Cl px         

 Vector   11  Occ=2.000000D+00  E=-7.155960D-01  Symmetry=a1
              MO Center= -3.5D-16,  7.5D-16,  5.5D-01, r^2= 8.7D-01
   Bfn.  Coefficient  Atom+Function         Bfn.  Coefficient  Atom+Function  
  ----- ------------  ---------------      ----- ------------  ---------------
    62      0.622158  2 Cl s                  3      0.441262  1 Na s          
    12      0.246805  1 Na pz                65      0.181618  2 Cl s          
     9     -0.174388  1 Na pz                28     -0.128561  1 Na dxx        
    31     -0.128561  1 Na dyy                4     -0.117947  1 Na s          
    77      0.115629  2 Cl pz                64      0.110679  2 Cl s          

 Vector   12  Occ=2.000000D+00  E=-3.417953D-01  Symmetry=e
              MO Center= -7.5D-17,  4.0D-16,  4.1D-01, r^2= 1.2D+00
   Bfn.  Coefficient  Atom+Function         Bfn.  Coefficient  Atom+Function  
  ----- ------------  ---------------      ----- ------------  ---------------
    70      0.416124  2 Cl py                73      0.323147  2 Cl py         
     8     -0.226314  1 Na py                91     -0.133524  2 Cl dyz        
    76      0.127480  2 Cl py               117      0.117069  2 Cl fyzz       
   107      0.104095  2 Cl fyzz              67     -0.082738  2 Cl py         
    26      0.079849  1 Na dyz              110      0.077759  2 Cl fxxy       

 Vector   13  Occ=2.000000D+00  E=-3.417953D-01  Symmetry=e
              MO Center=  4.1D-16,  1.6D-16,  4.1D-01, r^2= 1.2D+00
   Bfn.  Coefficient  Atom+Function         Bfn.  Coefficient  Atom+Function  
  ----- ------------  ---------------      ----- ------------  ---------------
    69      0.416124  2 Cl px                72      0.323147  2 Cl px         
     7     -0.226314  1 Na px                89     -0.133524  2 Cl dxz        
    75      0.127480  2 Cl px               114      0.117069  2 Cl fxzz       
   104      0.104095  2 Cl fxzz              66     -0.082738  2 Cl px         
    24      0.079849  1 Na dxz              109      0.077766  2 Cl fxxx       

 Vector   14  Occ=2.000000D+00  E=-1.883881D-01  Symmetry=a1
              MO Center= -8.9D-16,  1.3D-15,  2.2D-01, r^2= 2.5D+00
   Bfn.  Coefficient  Atom+Function         Bfn.  Coefficient  Atom+Function  
  ----- ------------  ---------------      ----- ------------  ---------------
     3      1.315137  1 Na s                 64     -0.833871  2 Cl s          
    12      0.535793  1 Na pz                 5      0.485536  1 Na s          
    65      0.432073  2 Cl s                 28     -0.381470  1 Na dxx        
    31     -0.381470  1 Na dyy               71     -0.346515  2 Cl pz         
    33     -0.313447  1 Na dzz                4     -0.278988  1 Na s          

 Vector   15  Occ=0.000000D+00  E=-4.749966D-02  Symmetry=a1
              MO Center=  4.4D-14, -4.4D-15, -1.6D+00, r^2= 8.3D+00
   Bfn.  Coefficient  Atom+Function         Bfn.  Coefficient  Atom+Function  
  ----- ------------  ---------------      ----- ------------  ---------------
     5      0.345935  1 Na s                 12     -0.346487  1 Na pz         
    15     -0.290208  1 Na pz                80      0.180329  2 Cl pz         
    71      0.163393  2 Cl pz                98      0.157311  2 Cl dzz        
    74      0.134463  2 Cl pz                62     -0.127436  2 Cl s          
    28      0.109566  1 Na dxx               31      0.109566  1 Na dyy        

 Vector   16  Occ=0.000000D+00  E=-3.219311D-03  Symmetry=e
              MO Center= -4.4D-14, -1.6D-14, -1.6D+00, r^2= 2.6D+01
   Bfn.  Coefficient  Atom+Function         Bfn.  Coefficient  Atom+Function  
  ----- ------------  ---------------      ----- ------------  ---------------
    19      0.467771  1 Na px                36     -0.346892  1 Na dxz        
    13      0.282950  1 Na px                20      0.259248  1 Na py         
    30     -0.193563  1 Na dxz               38     -0.192255  1 Na dyz        
    14      0.156817  1 Na py                78      0.149861  2 Cl px         
    16      0.133024  1 Na px                55     -0.113939  1 Na fxzz       

 Vector   17  Occ=0.000000D+00  E=-3.219311D-03  Symmetry=e
              MO Center=  4.6D-14, -6.9D-14, -1.6D+00, r^2= 2.6D+01
   Bfn.  Coefficient  Atom+Function         Bfn.  Coefficient  Atom+Function  
  ----- ------------  ---------------      ----- ------------  ---------------
    20      0.467771  1 Na py                38     -0.346892  1 Na dyz        
    14      0.282950  1 Na py                19     -0.259248  1 Na px         
    32     -0.193563  1 Na dyz               36      0.192255  1 Na dxz        
    13     -0.156817  1 Na px                79      0.149861  2 Cl py         
    17      0.133024  1 Na py                58     -0.113939  1 Na fyzz       

 Vector   18  Occ=0.000000D+00  E= 3.621206D-03  Symmetry=a1
              MO Center=  2.3D-15,  1.5D-14, -2.0D+00, r^2= 4.6D+01
   Bfn.  Coefficient  Atom+Function         Bfn.  Coefficient  Atom+Function  
  ----- ------------  ---------------      ----- ------------  ---------------
    21      1.063709  1 Na pz                 6     -0.345961  1 Na s          
    80      0.336878  2 Cl pz                18     -0.334040  1 Na pz         
    15      0.302304  1 Na pz                34      0.263199  1 Na dxx        
    37      0.263199  1 Na dyy                5     -0.242512  1 Na s          
    28      0.221156  1 Na dxx               31      0.221156  1 Na dyy        

 Vector   19  Occ=0.000000D+00  E= 6.671918D-03  Symmetry=a1
              MO Center= -3.2D-14,  9.2D-14, -1.4D+00, r^2= 5.5D+01
   Bfn.  Coefficient  Atom+Function         Bfn.  Coefficient  Atom+Function  
  ----- ------------  ---------------      ----- ------------  ---------------
     6      2.059857  1 Na s                  5      1.235161  1 Na s          
    39     -0.779562  1 Na dzz               34     -0.623437  1 Na dxx        
    37     -0.623437  1 Na dyy               33     -0.537792  1 Na dzz        
    77      0.434346  2 Cl pz                28     -0.397954  1 Na dxx        
    31     -0.397954  1 Na dyy               12      0.273710  1 Na pz         

 Vector   20  Occ=0.000000D+00  E= 1.799029D-02  Symmetry=e
              MO Center=  5.1D-15, -7.4D-15, -8.2D-01, r^2= 7.0D+01
   Bfn.  Coefficient  Atom+Function         Bfn.  Coefficient  Atom+Function  
  ----- ------------  ---------------      ----- ------------  ---------------
    17      1.644825  1 Na py                20     -1.559740  1 Na py         
    16     -1.180790  1 Na px                14     -1.134455  1 Na py         
    19      1.119710  1 Na px                13      0.814405  1 Na px         
    51      0.427661  1 Na fxxy              56      0.427662  1 Na fyyy       
    58      0.408957  1 Na fyzz              50     -0.307011  1 Na fxxx       

 Vector   21  Occ=0.000000D+00  E= 1.799029D-02  Symmetry=e
              MO Center= -1.6D-13, -1.1D-13, -8.2D-01, r^2= 7.0D+01
   Bfn.  Coefficient  Atom+Function         Bfn.  Coefficient  Atom+Function  
  ----- ------------  ---------------      ----- ------------  ---------------
    16      1.644825  1 Na px                19     -1.559740  1 Na px         
    17      1.180790  1 Na py                13     -1.134455  1 Na px         
    20     -1.119710  1 Na py                14     -0.814405  1 Na py         
    50      0.427662  1 Na fxxx              53      0.427661  1 Na fxyy       
    55      0.408957  1 Na fxzz              51      0.307011  1 Na fxxy       

 Vector   22  Occ=0.000000D+00  E= 2.493838D-02  Symmetry=a1
              MO Center=  1.5D-13,  1.2D-13,  1.5D+00, r^2= 5.5D+01
   Bfn.  Coefficient  Atom+Function         Bfn.  Coefficient  Atom+Function  
  ----- ------------  ---------------      ----- ------------  ---------------
    18      2.280675  1 Na pz                15     -2.043231  1 Na pz         
    21     -1.726940  1 Na pz                 5     -1.714149  1 Na s          
     6     -1.062500  1 Na s                 34      0.846533  1 Na dxx        
    37      0.846533  1 Na dyy               59      0.721736  1 Na fzzz       
    52      0.674523  1 Na fxxz              57      0.674523  1 Na fyyz       

 Vector   23  Occ=0.000000D+00  E= 4.212546D-02  Symmetry=b1
              MO Center=  2.2D-14,  1.3D-14, -8.0D-01, r^2= 2.2D+01
   Bfn.  Coefficient  Atom+Function         Bfn.  Coefficient  Atom+Function  
  ----- ------------  ---------------      ----- ------------  ---------------
    34      0.870689  1 Na dxx               37     -0.870689  1 Na dyy        
    22      0.081466  1 Na dxx               25     -0.081466  1 Na dyy        
    52     -0.080965  1 Na fxxz              57      0.080965  1 Na fyyz       
    28     -0.072443  1 Na dxx               31      0.072443  1 Na dyy        
    93      0.049700  2 Cl dxx               96     -0.049700  2 Cl dyy        

 Vector   24  Occ=0.000000D+00  E= 4.212573D-02  Symmetry=b2
              MO Center=  6.9D-14, -3.1D-14, -8.0D-01, r^2= 2.2D+01
   Bfn.  Coefficient  Atom+Function         Bfn.  Coefficient  Atom+Function  
  ----- ------------  ---------------      ----- ------------  ---------------
    35      1.741372  1 Na dxy               23      0.162931  1 Na dxy        
    54     -0.161917  1 Na fxyz              29     -0.144878  1 Na dxy        
    94      0.099397  2 Cl dxy               82      0.034471  2 Cl dxy        
    44      0.032190  1 Na fxyz              88      0.025838  2 Cl dxy        

 Vector   25  Occ=0.000000D+00  E= 4.429789D-02  Symmetry=a1
              MO Center=  1.7D-14,  2.2D-14, -2.0D+00, r^2= 4.0D+01
   Bfn.  Coefficient  Atom+Function         Bfn.  Coefficient  Atom+Function  
  ----- ------------  ---------------      ----- ------------  ---------------
     5      4.138972  1 Na s                 18      2.088864  1 Na pz         
    34     -1.741745  1 Na dxx               37     -1.741745  1 Na dyy        
     6      1.413988  1 Na s                 21     -1.064517  1 Na pz         
    77      1.053126  2 Cl pz                28     -1.002038  1 Na dxx        
    31     -1.002038  1 Na dyy               15     -0.848005  1 Na pz         

 Vector   26  Occ=0.000000D+00  E= 4.570834D-02  Symmetry=e
              MO Center= -6.0D-14, -3.2D-14, -2.3D-01, r^2= 2.8D+01
   Bfn.  Coefficient  Atom+Function         Bfn.  Coefficient  Atom+Function  
  ----- ------------  ---------------      ----- ------------  ---------------
    38      2.232734  1 Na dyz               79     -1.592974  2 Cl py         
    17      0.893581  1 Na py                36      0.887998  1 Na dxz        
    14      0.749640  1 Na py                78     -0.633554  2 Cl px         
    58      0.485121  1 Na fyzz              20     -0.467230  1 Na py         
    32      0.422606  1 Na dyz               16      0.355393  1 Na px         

 Vector   27  Occ=0.000000D+00  E= 4.570834D-02  Symmetry=e
              MO Center=  1.2D-13, -2.3D-14, -2.3D-01, r^2= 2.8D+01
   Bfn.  Coefficient  Atom+Function         Bfn.  Coefficient  Atom+Function  
  ----- ------------  ---------------      ----- ------------  ---------------
    36      2.232734  1 Na dxz               78     -1.592974  2 Cl px         
    16      0.893581  1 Na px                38     -0.887998  1 Na dyz        
    13      0.749640  1 Na px                79      0.633554  2 Cl py         
    55      0.485121  1 Na fxzz              19     -0.467230  1 Na px         
    30      0.422606  1 Na dxz               17     -0.355393  1 Na py         

 Vector   28  Occ=0.000000D+00  E= 4.864584D-02  Symmetry=a1
              MO Center= -1.8D-13,  6.2D-14, -1.1D+00, r^2= 3.8D+01
   Bfn.  Coefficient  Atom+Function         Bfn.  Coefficient  Atom+Function  
  ----- ------------  ---------------      ----- ------------  ---------------
     5      3.771502  1 Na s                 39     -2.823934  1 Na dzz        
     6      1.821423  1 Na s                 15     -1.662549  1 Na pz         
    80      1.430749  2 Cl pz                34     -1.109605  1 Na dxx        
    37     -1.109605  1 Na dyy               33     -1.072924  1 Na dzz        
    77      0.972784  2 Cl pz                28     -0.880557  1 Na dxx        

 Vector   29  Occ=0.000000D+00  E= 6.777198D-02  Symmetry=e
              MO Center=  5.0D-15, -4.5D-14, -1.7D+00, r^2= 3.7D+01
   Bfn.  Coefficient  Atom+Function         Bfn.  Coefficient  Atom+Function  
  ----- ------------  ---------------      ----- ------------  ---------------
    14      5.816278  1 Na py                17     -3.567637  1 Na py         
    20      1.505118  1 Na py                79     -1.433467  2 Cl py         
    51     -1.235853  1 Na fxxy              56     -1.235856  1 Na fyyy       
    38      1.043350  1 Na dyz               58     -1.017601  1 Na fyzz       
    76     -0.372906  2 Cl py                26      0.273182  1 Na dyz        

 Vector   30  Occ=0.000000D+00  E= 6.777198D-02  Symmetry=e
              MO Center=  3.8D-14,  1.8D-14, -1.7D+00, r^2= 3.7D+01
   Bfn.  Coefficient  Atom+Function         Bfn.  Coefficient  Atom+Function  
  ----- ------------  ---------------      ----- ------------  ---------------
    13      5.816278  1 Na px                16     -3.567637  1 Na px         
    19      1.505118  1 Na px                78     -1.433467  2 Cl px         
    50     -1.235856  1 Na fxxx              53     -1.235853  1 Na fxyy       
    36      1.043350  1 Na dxz               55     -1.017601  1 Na fxzz       
    75     -0.372906  2 Cl px                24      0.273182  1 Na dxz        

 Vector   31  Occ=0.000000D+00  E= 8.497052D-02  Symmetry=a1
              MO Center= -2.0D-14,  3.9D-15,  4.5D-01, r^2= 3.5D+01
   Bfn.  Coefficient  Atom+Function         Bfn.  Coefficient  Atom+Function  
  ----- ------------  ---------------      ----- ------------  ---------------
     5      7.359549  1 Na s                 15      6.812057  1 Na pz         
    18     -3.260928  1 Na pz                59     -2.045905  1 Na fzzz       
    34     -1.997009  1 Na dxx               37     -1.997009  1 Na dyy        
    65     -1.954670  2 Cl s                 33     -1.919153  1 Na dzz        
    52     -1.882440  1 Na fxxz              57     -1.882440  1 Na fyyz       

 Vector   32  Occ=0.000000D+00  E= 1.306834D-01  Symmetry=e
              MO Center=  1.5D-14, -2.3D-14,  1.3D+00, r^2= 1.8D+01
   Bfn.  Coefficient  Atom+Function         Bfn.  Coefficient  Atom+Function  
  ----- ------------  ---------------      ----- ------------  ---------------
    79      5.966412  2 Cl py                78      2.561399  2 Cl px         
    32     -2.425389  1 Na dyz               38     -2.274531  1 Na dyz        
    58     -2.233893  1 Na fyzz              14     -1.881528  1 Na py         
    17     -1.493220  1 Na py                30     -1.041227  1 Na dxz        
    36     -0.976463  1 Na dxz               55     -0.959017  1 Na fxzz       

 Vector   33  Occ=0.000000D+00  E= 1.306834D-01  Symmetry=e
              MO Center=  3.8D-14, -2.2D-14,  1.3D+00, r^2= 1.8D+01
   Bfn.  Coefficient  Atom+Function         Bfn.  Coefficient  Atom+Function  
  ----- ------------  ---------------      ----- ------------  ---------------
    78      5.966412  2 Cl px                79     -2.561399  2 Cl py         
    30     -2.425389  1 Na dxz               36     -2.274531  1 Na dxz        
    55     -2.233893  1 Na fxzz              13     -1.881528  1 Na px         
    16     -1.493220  1 Na px                32      1.041227  1 Na dyz        
    38      0.976463  1 Na dyz               58      0.959017  1 Na fyzz       

 Vector   34  Occ=0.000000D+00  E= 1.340938D-01  Symmetry=a1
              MO Center=  6.5D-14,  1.0D-14, -6.0D-02, r^2= 2.6D+01
   Bfn.  Coefficient  Atom+Function         Bfn.  Coefficient  Atom+Function  
  ----- ------------  ---------------      ----- ------------  ---------------
     5     10.550135  1 Na s                 80     -5.250657  2 Cl pz         
    77      3.098180  2 Cl pz                28     -3.078640  1 Na dxx        
    31     -3.078640  1 Na dyy               64     -2.617464  2 Cl s          
    18      2.302073  1 Na pz                34     -2.183599  1 Na dxx        
    37     -2.183599  1 Na dyy               12      1.833688  1 Na pz         

 Vector   35  Occ=0.000000D+00  E= 1.403177D-01  Symmetry=b1
              MO Center= -6.9D-16,  2.5D-14, -4.8D-01, r^2= 1.2D+01
   Bfn.  Coefficient  Atom+Function         Bfn.  Coefficient  Atom+Function  
  ----- ------------  ---------------      ----- ------------  ---------------
    28      1.063845  1 Na dxx               31     -1.063845  1 Na dyy        
    34     -0.720188  1 Na dxx               37      0.720188  1 Na dyy        
    52      0.346027  1 Na fxxz              57     -0.346027  1 Na fyyz       
    87      0.125986  2 Cl dxx               90     -0.125986  2 Cl dyy        
    42     -0.120925  1 Na fxxz              47      0.120925  1 Na fyyz       

 Vector   36  Occ=0.000000D+00  E= 1.403178D-01  Symmetry=b2
              MO Center= -8.2D-15, -4.7D-15, -4.8D-01, r^2= 1.2D+01
   Bfn.  Coefficient  Atom+Function         Bfn.  Coefficient  Atom+Function  
  ----- ------------  ---------------      ----- ------------  ---------------
    29      2.127683  1 Na dxy               35     -1.440379  1 Na dxy        
    54      0.692033  1 Na fxyz              88      0.251969  2 Cl dxy        
    44     -0.241838  1 Na fxyz             113     -0.215217  2 Cl fxyz       
    23     -0.153278  1 Na dxy               82      0.102029  2 Cl dxy        
    94      0.093855  2 Cl dxy        

 Vector   37  Occ=0.000000D+00  E= 1.468169D-01  Symmetry=a1
              MO Center= -1.6D-13,  3.2D-14, -1.2D+00, r^2= 2.6D+01
   Bfn.  Coefficient  Atom+Function         Bfn.  Coefficient  Atom+Function  
  ----- ------------  ---------------      ----- ------------  ---------------
     5      9.440143  1 Na s                 15     -6.507440  1 Na pz         
    80      4.820677  2 Cl pz                33     -3.698225  1 Na dzz        
    39     -3.423719  1 Na dzz               34     -1.981140  1 Na dxx        
    37     -1.981140  1 Na dyy               77      1.683749  2 Cl pz         
    52      1.655143  1 Na fxxz              57      1.655143  1 Na fyyz       

 Vector   38  Occ=0.000000D+00  E= 1.697983D-01  Symmetry=e
              MO Center= -7.4D-15, -2.8D-14, -7.5D-01, r^2= 2.1D+01
   Bfn.  Coefficient  Atom+Function         Bfn.  Coefficient  Atom+Function  
  ----- ------------  ---------------      ----- ------------  ---------------
    14     10.537850  1 Na py                79     -3.808727  2 Cl py         
    32      3.393921  1 Na dyz               51     -2.786222  1 Na fxxy       
    56     -2.786225  1 Na fyyy              17     -2.675750  1 Na py         
    13      2.580006  1 Na px                76     -2.542740  2 Cl py         
    58     -2.511114  1 Na fyzz              97      1.454659  2 Cl dyz        

 Vector   39  Occ=0.000000D+00  E= 1.697983D-01  Symmetry=e
              MO Center=  5.2D-12, -1.3D-12, -7.5D-01, r^2= 2.1D+01
   Bfn.  Coefficient  Atom+Function         Bfn.  Coefficient  Atom+Function  
  ----- ------------  ---------------      ----- ------------  ---------------
    13     10.537850  1 Na px                78     -3.808727  2 Cl px         
    30      3.393921  1 Na dxz               50     -2.786225  1 Na fxxx       
    53     -2.786222  1 Na fxyy              16     -2.675750  1 Na px         
    14     -2.580006  1 Na py                75     -2.542740  2 Cl px         
    55     -2.511114  1 Na fxzz              95      1.454659  2 Cl dxz        

 Vector   40  Occ=0.000000D+00  E= 1.700195D-01  Symmetry=a1
              MO Center= -5.0D-12,  1.2D-12, -6.0D-02, r^2= 1.7D+01
   Bfn.  Coefficient  Atom+Function         Bfn.  Coefficient  Atom+Function  
  ----- ------------  ---------------      ----- ------------  ---------------
     5      6.410745  1 Na s                 15      5.656128  1 Na pz         
    64     -4.477002  2 Cl s                 28     -2.831549  1 Na dxx        
    31     -2.831549  1 Na dyy                3      2.787501  1 Na s          
    77      2.128706  2 Cl pz                59     -2.112974  1 Na fzzz       
    18     -1.796213  1 Na pz                39     -1.560032  1 Na dzz        

 Vector   41  Occ=0.000000D+00  E= 1.929547D-01  Symmetry=e
              MO Center= -1.2D-14,  3.1D-15, -1.7D+00, r^2= 1.3D+01
   Bfn.  Coefficient  Atom+Function         Bfn.  Coefficient  Atom+Function  
  ----- ------------  ---------------      ----- ------------  ---------------
    13      5.729026  1 Na px                14      2.331403  1 Na py         
    50     -2.121719  1 Na fxxx              53     -2.121703  1 Na fxyy       
    78     -1.659471  2 Cl px                16     -1.463981  1 Na px         
    36      1.320901  1 Na dxz               30     -0.951160  1 Na dxz        
    51     -0.863418  1 Na fxxy              56     -0.863425  1 Na fyyy       

 Vector   42  Occ=0.000000D+00  E= 1.929547D-01  Symmetry=e
              MO Center= -3.8D-14, -9.2D-15, -1.7D+00, r^2= 1.3D+01
   Bfn.  Coefficient  Atom+Function         Bfn.  Coefficient  Atom+Function  
  ----- ------------  ---------------      ----- ------------  ---------------
    14      5.729026  1 Na py                13     -2.331403  1 Na px         
    51     -2.121703  1 Na fxxy              56     -2.121719  1 Na fyyy       
    79     -1.659471  2 Cl py                17     -1.463981  1 Na py         
    38      1.320901  1 Na dyz               32     -0.951160  1 Na dyz        
    50      0.863425  1 Na fxxx              53      0.863418  1 Na fxyy       

 Vector   43  Occ=0.000000D+00  E= 2.029210D-01  Symmetry=b2
              MO Center=  3.5D-14, -2.4D-14, -1.0D+00, r^2= 9.9D+00
   Bfn.  Coefficient  Atom+Function         Bfn.  Coefficient  Atom+Function  
  ----- ------------  ---------------      ----- ------------  ---------------
    54      4.501945  1 Na fxyz              44     -1.073866  1 Na fxyz       
    29     -0.647254  1 Na dxy               35      0.375445  1 Na dxy        
    88      0.236858  2 Cl dxy               23      0.144290  1 Na dxy        
   113     -0.099005  2 Cl fxyz              94     -0.081655  2 Cl dxy        
    82      0.059246  2 Cl dxy        

 Vector   44  Occ=0.000000D+00  E= 2.029212D-01  Symmetry=b1
              MO Center=  1.5D-14,  1.6D-14, -1.0D+00, r^2= 9.9D+00
   Bfn.  Coefficient  Atom+Function         Bfn.  Coefficient  Atom+Function  
  ----- ------------  ---------------      ----- ------------  ---------------
    52      2.250976  1 Na fxxz              57     -2.250976  1 Na fyyz       
    42     -0.536935  1 Na fxxz              47      0.536935  1 Na fyyz       
    28     -0.323625  1 Na dxx               31      0.323625  1 Na dyy        
    34      0.187724  1 Na dxx               37     -0.187724  1 Na dyy        
    87      0.118429  2 Cl dxx               90     -0.118429  2 Cl dyy        

 Vector   45  Occ=0.000000D+00  E= 2.187961D-01  Symmetry=e
              MO Center= -2.9D-15,  2.0D-15, -7.6D-01, r^2= 1.0D+01
   Bfn.  Coefficient  Atom+Function         Bfn.  Coefficient  Atom+Function  
  ----- ------------  ---------------      ----- ------------  ---------------
    51      2.422255  1 Na fxxy              53     -1.568680  1 Na fxyy       
    56     -0.807405  1 Na fyyy              41     -0.615544  1 Na fxxy       
    50      0.522884  1 Na fxxx              43      0.398633  1 Na fxyy       
    46      0.205182  1 Na fyyy              40     -0.132878  1 Na fxxx       
   110      0.061295  2 Cl fxxy             112     -0.039696  2 Cl fxyy       

 Vector   46  Occ=0.000000D+00  E= 2.187961D-01  Symmetry=e
              MO Center=  2.1D-17, -4.4D-16, -7.6D-01, r^2= 1.0D+01
   Bfn.  Coefficient  Atom+Function         Bfn.  Coefficient  Atom+Function  
  ----- ------------  ---------------      ----- ------------  ---------------
    53      2.422255  1 Na fxyy              51      1.568680  1 Na fxxy       
    50     -0.807405  1 Na fxxx              43     -0.615544  1 Na fxyy       
    56     -0.522884  1 Na fyyy              41     -0.398633  1 Na fxxy       
    40      0.205182  1 Na fxxx              46      0.132878  1 Na fyyy       
   112      0.061295  2 Cl fxyy             110      0.039696  2 Cl fxxy       

 Vector   47  Occ=0.000000D+00  E= 2.273879D-01  Symmetry=a1
              MO Center= -1.7D-14,  7.1D-15, -1.6D-01, r^2= 2.0D+01
   Bfn.  Coefficient  Atom+Function         Bfn.  Coefficient  Atom+Function  
  ----- ------------  ---------------      ----- ------------  ---------------
     5     12.714846  1 Na s                 15      9.931684  1 Na pz         
    52     -4.510939  1 Na fxxz              57     -4.510939  1 Na fyyz       
    33     -4.093237  1 Na dzz               59     -3.605153  1 Na fzzz       
    65     -3.515909  2 Cl s                 28     -2.857575  1 Na dxx        
    31     -2.857575  1 Na dyy               77      2.424899  2 Cl pz         

 Vector   48  Occ=0.000000D+00  E= 2.981848D-01  Symmetry=e
              MO Center= -5.9D-15, -5.5D-15,  6.7D-01, r^2= 1.4D+01
   Bfn.  Coefficient  Atom+Function         Bfn.  Coefficient  Atom+Function  
  ----- ------------  ---------------      ----- ------------  ---------------
    58      6.732698  1 Na fyzz              79     -6.080092  2 Cl py         
    32      5.964995  1 Na dyz               55      5.324268  1 Na fxzz       
    78     -4.808182  2 Cl px                30      4.717163  1 Na dxz        
    76     -2.010016  2 Cl py                26     -1.608773  1 Na dyz        
    75     -1.589536  2 Cl px                51      1.469624  1 Na fxxy       

 Vector   49  Occ=0.000000D+00  E= 2.981848D-01  Symmetry=e
              MO Center=  3.6D-14, -2.8D-14,  6.7D-01, r^2= 1.4D+01
   Bfn.  Coefficient  Atom+Function         Bfn.  Coefficient  Atom+Function  
  ----- ------------  ---------------      ----- ------------  ---------------
    55      6.732698  1 Na fxzz              78     -6.080092  2 Cl px         
    30      5.964995  1 Na dxz               58     -5.324268  1 Na fyzz       
    79      4.808182  2 Cl py                32     -4.717163  1 Na dyz        
    75     -2.010016  2 Cl px                24     -1.608773  1 Na dxz        
    76      1.589536  2 Cl py                50      1.469627  1 Na fxxx       

 Vector   50  Occ=0.000000D+00  E= 3.035563D-01  Symmetry=a1
              MO Center= -1.1D-13,  8.4D-14,  1.9D-01, r^2= 1.4D+01
   Bfn.  Coefficient  Atom+Function         Bfn.  Coefficient  Atom+Function  
  ----- ------------  ---------------      ----- ------------  ---------------
    59      6.590995  1 Na fzzz              80     -6.442437  2 Cl pz         
    33      6.198891  1 Na dzz               64     -4.878985  2 Cl s          
    98     -2.951486  2 Cl dzz               28     -2.390666  1 Na dxx        
    31     -2.390666  1 Na dyy               93     -2.371053  2 Cl dxx        
    96     -2.371053  2 Cl dyy               12      2.265254  1 Na pz         

 Vector   51  Occ=0.000000D+00  E= 3.320096D-01  Symmetry=a1
              MO Center=  9.4D-15, -2.3D-14, -2.3D+00, r^2= 1.5D+01
   Bfn.  Coefficient  Atom+Function         Bfn.  Coefficient  Atom+Function  
  ----- ------------  ---------------      ----- ------------  ---------------
     5     17.413673  1 Na s                 77      6.820872  2 Cl pz         
    33     -6.229785  1 Na dzz               28     -5.941145  1 Na dxx        
    31     -5.941145  1 Na dyy               15     -4.984269  1 Na pz         
     3      3.721969  1 Na s                 98     -2.975816  2 Cl dzz        
    39     -2.764210  1 Na dzz               34     -2.709334  1 Na dxx        

 Vector   52  Occ=0.000000D+00  E= 3.503126D-01  Symmetry=e
              MO Center=  3.8D-15,  2.8D-15, -2.9D-01, r^2= 9.5D+00
   Bfn.  Coefficient  Atom+Function         Bfn.  Coefficient  Atom+Function  
  ----- ------------  ---------------      ----- ------------  ---------------
    14      5.814440  1 Na py                32      3.878392  1 Na dyz        
    76     -3.262288  2 Cl py                13      2.963204  1 Na px         
    51     -2.523737  1 Na fxxy              56     -2.523737  1 Na fyyy       
    79     -2.213645  2 Cl py                58      2.148067  1 Na fyzz       
    30      1.976538  1 Na dxz               75     -1.662554  2 Cl px         

 Vector   53  Occ=0.000000D+00  E= 3.503126D-01  Symmetry=e
              MO Center= -4.1D-15,  3.2D-15, -2.9D-01, r^2= 9.5D+00
   Bfn.  Coefficient  Atom+Function         Bfn.  Coefficient  Atom+Function  
  ----- ------------  ---------------      ----- ------------  ---------------
    13      5.814440  1 Na px                30      3.878392  1 Na dxz        
    75     -3.262288  2 Cl px                14     -2.963204  1 Na py         
    50     -2.523737  1 Na fxxx              53     -2.523737  1 Na fxyy       
    78     -2.213645  2 Cl px                55      2.148067  1 Na fxzz       
    32     -1.976538  1 Na dyz               76      1.662554  2 Cl py         

 Vector   54  Occ=0.000000D+00  E= 3.510538D-01  Symmetry=b2
              MO Center= -4.0D-15, -2.9D-15, -3.5D-02, r^2= 7.6D+00
   Bfn.  Coefficient  Atom+Function         Bfn.  Coefficient  Atom+Function  
  ----- ------------  ---------------      ----- ------------  ---------------
    54      2.966063  1 Na fxyz              29      2.856325  1 Na dxy        
    94     -1.857718  2 Cl dxy               23     -1.149216  1 Na dxy        
    35     -0.851160  1 Na dxy               44     -0.396081  1 Na fxyz       
    82     -0.328690  2 Cl dxy               88     -0.130422  2 Cl dxy        
   103      0.081213  2 Cl fxyz             113      0.077776  2 Cl fxyz       

 Vector   55  Occ=0.000000D+00  E= 3.510550D-01  Symmetry=b1
              MO Center= -7.1D-16, -1.8D-15, -3.5D-02, r^2= 7.6D+00
   Bfn.  Coefficient  Atom+Function         Bfn.  Coefficient  Atom+Function  
  ----- ------------  ---------------      ----- ------------  ---------------
    52      1.483023  1 Na fxxz              57     -1.483023  1 Na fyyz       
    28      1.428166  1 Na dxx               31     -1.428166  1 Na dyy        
    93     -0.928869  2 Cl dxx               96      0.928869  2 Cl dyy        
    22     -0.574609  1 Na dxx               25      0.574609  1 Na dyy        
    34     -0.425579  1 Na dxx               37      0.425579  1 Na dyy        

 Vector   56  Occ=0.000000D+00  E= 4.100026D-01  Symmetry=a1
              MO Center=  1.1D-13,  6.4D-15, -7.4D-01, r^2= 1.0D+01
   Bfn.  Coefficient  Atom+Function         Bfn.  Coefficient  Atom+Function  
  ----- ------------  ---------------      ----- ------------  ---------------
    15      9.099401  1 Na pz                64     -7.809027  2 Cl s          
     5      4.345515  1 Na s                 52     -4.076330  1 Na fxxz       
    57     -4.076330  1 Na fyyz              59     -3.633572  1 Na fzzz       
    80     -3.185567  2 Cl pz                77      3.024828  2 Cl pz         
    28     -2.813774  1 Na dxx               31     -2.813774  1 Na dyy        

 Vector   57  Occ=0.000000D+00  E= 4.167802D-01  Symmetry=e
              MO Center= -9.4D-14,  2.4D-15, -1.1D+00, r^2= 1.0D+01
   Bfn.  Coefficient  Atom+Function         Bfn.  Coefficient  Atom+Function  
  ----- ------------  ---------------      ----- ------------  ---------------
    13      9.614379  1 Na px                55     -4.527524  1 Na fxzz       
    50     -4.269028  1 Na fxxx              53     -4.269027  1 Na fxyy       
    78     -2.426485  2 Cl px                95      2.398970  2 Cl dxz        
    30      2.357365  1 Na dxz               16     -1.743511  1 Na px         
    10      1.692182  1 Na px                75     -1.560750  2 Cl px         

 Vector   58  Occ=0.000000D+00  E= 4.167802D-01  Symmetry=e
              MO Center=  8.2D-17, -1.6D-16, -1.1D+00, r^2= 1.0D+01
   Bfn.  Coefficient  Atom+Function         Bfn.  Coefficient  Atom+Function  
  ----- ------------  ---------------      ----- ------------  ---------------
    14      9.614379  1 Na py                58     -4.527524  1 Na fyzz       
    51     -4.269027  1 Na fxxy              56     -4.269028  1 Na fyyy       
    79     -2.426485  2 Cl py                97      2.398970  2 Cl dyz        
    32      2.357365  1 Na dyz               17     -1.743511  1 Na py         
    11      1.692182  1 Na py                76     -1.560750  2 Cl py         

 Vector   59  Occ=0.000000D+00  E= 4.533357D-01  Symmetry=a1
              MO Center=  1.3D-14, -2.4D-15,  1.2D+00, r^2= 7.6D+00
   Bfn.  Coefficient  Atom+Function         Bfn.  Coefficient  Atom+Function  
  ----- ------------  ---------------      ----- ------------  ---------------
     5      7.545760  1 Na s                  3      3.736299  1 Na s          
    28     -2.989232  1 Na dxx               31     -2.989232  1 Na dyy        
    15      2.846101  1 Na pz                98     -2.729635  2 Cl dzz        
    27     -2.662787  1 Na dzz               33     -2.490985  1 Na dzz        
    52     -2.274434  1 Na fxxz              57     -2.274434  1 Na fyyz       

 Vector   60  Occ=0.000000D+00  E= 4.814964D-01  Symmetry=b1
              MO Center=  2.0D-17,  5.6D-16, -4.7D-01, r^2= 6.2D+00
   Bfn.  Coefficient  Atom+Function         Bfn.  Coefficient  Atom+Function  
  ----- ------------  ---------------      ----- ------------  ---------------
    22      1.788686  1 Na dxx               25     -1.788686  1 Na dyy        
    93     -1.532416  2 Cl dxx               96      1.532416  2 Cl dyy        
    52      1.365710  1 Na fxxz              57     -1.365710  1 Na fyyz       
    28     -0.571017  1 Na dxx               31      0.571017  1 Na dyy        
    42      0.401965  1 Na fxxz              47     -0.401965  1 Na fyyz       

 Vector   61  Occ=0.000000D+00  E= 4.814964D-01  Symmetry=b2
              MO Center= -2.3D-16,  1.5D-15, -4.7D-01, r^2= 6.2D+00
   Bfn.  Coefficient  Atom+Function         Bfn.  Coefficient  Atom+Function  
  ----- ------------  ---------------      ----- ------------  ---------------
    23      3.577372  1 Na dxy               94     -3.064807  2 Cl dxy        
    54      2.731411  1 Na fxyz              29     -1.142049  1 Na dxy        
    44      0.803909  1 Na fxyz              35      0.464656  1 Na dxy        
   113      0.400525  2 Cl fxyz             103     -0.193442  2 Cl fxyz       
    82     -0.151591  2 Cl dxy               88      0.085619  2 Cl dxy        

 Vector   62  Occ=0.000000D+00  E= 5.247776D-01  Symmetry=e
              MO Center= -1.0D-14,  2.8D-14, -4.1D-01, r^2= 8.2D+00
   Bfn.  Coefficient  Atom+Function         Bfn.  Coefficient  Atom+Function  
  ----- ------------  ---------------      ----- ------------  ---------------
    76      3.991874  2 Cl py                32     -3.519302  1 Na dyz        
    14      3.114106  1 Na py                58     -2.297601  1 Na fyzz       
    26      1.993646  1 Na dyz              117     -1.903544  2 Cl fyzz       
    51     -1.765712  1 Na fxxy              56     -1.765716  1 Na fyyy       
    48     -1.728445  1 Na fyzz              70      1.697170  2 Cl py         

 Vector   63  Occ=0.000000D+00  E= 5.247776D-01  Symmetry=e
              MO Center= -7.9D-15, -2.0D-14, -4.1D-01, r^2= 8.2D+00
   Bfn.  Coefficient  Atom+Function         Bfn.  Coefficient  Atom+Function  
  ----- ------------  ---------------      ----- ------------  ---------------
    75      3.991874  2 Cl px                30     -3.519302  1 Na dxz        
    13      3.114106  1 Na px                55     -2.297601  1 Na fxzz       
    24      1.993646  1 Na dxz              114     -1.903544  2 Cl fxzz       
    50     -1.765716  1 Na fxxx              53     -1.765712  1 Na fxyy       
    45     -1.728445  1 Na fxzz              69      1.697170  2 Cl px         

 Vector   64  Occ=0.000000D+00  E= 5.563299D-01  Symmetry=a1
              MO Center=  2.4D-15, -1.9D-14,  2.8D-01, r^2= 1.0D+01
   Bfn.  Coefficient  Atom+Function         Bfn.  Coefficient  Atom+Function  
  ----- ------------  ---------------      ----- ------------  ---------------
     5      8.933773  1 Na s                 15      7.104638  1 Na pz         
    33     -5.944192  1 Na dzz               59     -5.103147  1 Na fzzz       
    65     -4.881633  2 Cl s                 77      4.395252  2 Cl pz         
    52     -4.181376  1 Na fxxz              57     -4.181376  1 Na fyyz       
    93      3.125370  2 Cl dxx               96      3.125370  2 Cl dyy        

 Vector   65  Occ=0.000000D+00  E= 5.881683D-01  Symmetry=b2
              MO Center=  1.1D-14,  2.3D-14, -6.5D-01, r^2= 6.0D+00
   Bfn.  Coefficient  Atom+Function         Bfn.  Coefficient  Atom+Function  
  ----- ------------  ---------------      ----- ------------  ---------------
    44      7.609335  1 Na fxyz              94     -3.428907  2 Cl dxy        
    54     -1.775531  1 Na fxyz              23      1.264409  1 Na dxy        
    29      1.138561  1 Na dxy              113      0.874432  2 Cl fxyz       
    88      0.361150  2 Cl dxy              103     -0.299763  2 Cl fxyz       
    35     -0.219624  1 Na dxy               82      0.141753  2 Cl dxy        

 Vector   66  Occ=0.000000D+00  E= 5.881690D-01  Symmetry=b1
              MO Center=  6.3D-15, -2.0D-14, -6.5D-01, r^2= 6.0D+00
   Bfn.  Coefficient  Atom+Function         Bfn.  Coefficient  Atom+Function  
  ----- ------------  ---------------      ----- ------------  ---------------
    42      3.804673  1 Na fxxz              47     -3.804673  1 Na fyyz       
    93     -1.714436  2 Cl dxx               96      1.714436  2 Cl dyy        
    52     -0.887785  1 Na fxxz              57      0.887785  1 Na fyyz       
    22      0.632199  1 Na dxx               25     -0.632199  1 Na dyy        
    28      0.569274  1 Na dxx               31     -0.569274  1 Na dyy        

 Vector   67  Occ=0.000000D+00  E= 6.207443D-01  Symmetry=e
              MO Center=  5.9D-16,  1.8D-16, -7.7D-01, r^2= 5.5D+00
   Bfn.  Coefficient  Atom+Function         Bfn.  Coefficient  Atom+Function  
  ----- ------------  ---------------      ----- ------------  ---------------
    43      3.564417  1 Na fxyy              53     -2.364111  1 Na fxyy       
    40     -1.188139  1 Na fxxx              41     -1.063029  1 Na fxxy       
    50      0.788030  1 Na fxxx              51      0.705057  1 Na fxxy       
    46      0.354343  1 Na fyyy              56     -0.235017  1 Na fyyy       
   102      0.057180  2 Cl fxyy       

 Vector   68  Occ=0.000000D+00  E= 6.207443D-01  Symmetry=e
              MO Center=  4.3D-15,  1.3D-15, -7.7D-01, r^2= 5.5D+00
   Bfn.  Coefficient  Atom+Function         Bfn.  Coefficient  Atom+Function  
  ----- ------------  ---------------      ----- ------------  ---------------
    41      3.564417  1 Na fxxy              51     -2.364111  1 Na fxxy       
    46     -1.188139  1 Na fyyy              43      1.063029  1 Na fxyy       
    56      0.788030  1 Na fyyy              53     -0.705057  1 Na fxyy       
    40     -0.354343  1 Na fxxx              50      0.235017  1 Na fxxx       
   100      0.057180  2 Cl fxxy       

 Vector   69  Occ=0.000000D+00  E= 7.130379D-01  Symmetry=a1
              MO Center=  1.3D-15, -4.3D-16, -6.7D-01, r^2= 7.2D+00
   Bfn.  Coefficient  Atom+Function         Bfn.  Coefficient  Atom+Function  
  ----- ------------  ---------------      ----- ------------  ---------------
    33      6.353589  1 Na dzz               59      5.695769  1 Na fzzz       
    42      4.416367  1 Na fxxz              47      4.416367  1 Na fyyz       
    77     -4.425485  2 Cl pz                 5     -3.577427  1 Na s          
    80     -3.367657  2 Cl pz                93     -3.091639  2 Cl dxx        
    96     -3.091639  2 Cl dyy               98     -2.056929  2 Cl dzz        

 Vector   70  Occ=0.000000D+00  E= 7.310622D-01  Symmetry=e
              MO Center= -4.1D-16,  7.9D-16, -5.7D-01, r^2= 7.1D+00
   Bfn.  Coefficient  Atom+Function         Bfn.  Coefficient  Atom+Function  
  ----- ------------  ---------------      ----- ------------  ---------------
    58      6.894957  1 Na fyzz              32      6.135483  1 Na dyz        
    76     -5.640193  2 Cl py                48     -5.518890  1 Na fyzz       
    79     -4.411642  2 Cl py                26     -3.064680  1 Na dyz        
    55     -2.923243  1 Na fxzz             110      2.734625  2 Cl fxxy       
   115      2.734625  2 Cl fyyy             117      2.739516  2 Cl fyzz       

 Vector   71  Occ=0.000000D+00  E= 7.310622D-01  Symmetry=e
              MO Center=  1.9D-14,  7.9D-15, -5.7D-01, r^2= 7.1D+00
   Bfn.  Coefficient  Atom+Function         Bfn.  Coefficient  Atom+Function  
  ----- ------------  ---------------      ----- ------------  ---------------
    55      6.894957  1 Na fxzz              30      6.135483  1 Na dxz        
    75     -5.640193  2 Cl px                45     -5.518890  1 Na fxzz       
    78     -4.411642  2 Cl px                24     -3.064680  1 Na dxz        
    58      2.923243  1 Na fyzz             109      2.734625  2 Cl fxxx       
   112      2.734625  2 Cl fxyy             114      2.739516  2 Cl fxzz       

 Vector   72  Occ=0.000000D+00  E= 7.566421D-01  Symmetry=a1
              MO Center= -8.3D-13, -2.7D-13, -1.5D+00, r^2= 8.3D+00
   Bfn.  Coefficient  Atom+Function         Bfn.  Coefficient  Atom+Function  
  ----- ------------  ---------------      ----- ------------  ---------------
    77     19.495300  2 Cl pz                 3     14.362038  1 Na s          
     5     13.280527  1 Na s                 98    -11.339862  2 Cl dzz        
    27     -9.934442  1 Na dzz               28     -7.921891  1 Na dxx        
    31     -7.921891  1 Na dyy               33     -7.297104  1 Na dzz        
    65      6.941066  2 Cl s                 12     -5.430242  1 Na pz         

 Vector   73  Occ=0.000000D+00  E= 7.578885D-01  Symmetry=e
              MO Center= -1.7D-16,  8.3D-16,  6.2D-01, r^2= 4.9D+00
   Bfn.  Coefficient  Atom+Function         Bfn.  Coefficient  Atom+Function  
  ----- ------------  ---------------      ----- ------------  ---------------
    11      5.721896  1 Na py                97      3.577671  2 Cl dyz        
     8      2.917731  1 Na py                79     -2.329699  2 Cl py         
    41     -1.987647  1 Na fxxy              46     -1.987650  1 Na fyyy       
    32      1.639947  1 Na dyz               48     -1.597028  1 Na fyzz       
    51      1.594832  1 Na fxxy              56      1.594833  1 Na fyyy       

 Vector   74  Occ=0.000000D+00  E= 7.578885D-01  Symmetry=e
              MO Center=  9.6D-13,  2.1D-13,  6.2D-01, r^2= 4.9D+00
   Bfn.  Coefficient  Atom+Function         Bfn.  Coefficient  Atom+Function  
  ----- ------------  ---------------      ----- ------------  ---------------
    10      5.721896  1 Na px                95      3.577671  2 Cl dxz        
     7      2.917731  1 Na px                78     -2.329699  2 Cl px         
    40     -1.987650  1 Na fxxx              43     -1.987647  1 Na fxyy       
    30      1.639947  1 Na dxz               45     -1.597028  1 Na fxzz       
    50      1.594833  1 Na fxxx              53      1.594832  1 Na fxyy       

 Vector   75  Occ=0.000000D+00  E= 8.364036D-01  Symmetry=a1
              MO Center=  3.1D-14,  2.4D-15, -2.9D-01, r^2= 6.4D+00
   Bfn.  Coefficient  Atom+Function         Bfn.  Coefficient  Atom+Function  
  ----- ------------  ---------------      ----- ------------  ---------------
    64     21.038852  2 Cl s                 27     -9.347239  1 Na dzz        
    12     -7.435367  1 Na pz                49     -6.790142  1 Na fzzz       
    93      5.762784  2 Cl dxx               96      5.762784  2 Cl dyy        
     3     -5.162961  1 Na s                 15     -5.127904  1 Na pz         
    42     -4.540885  1 Na fxxz              47     -4.540885  1 Na fyyz       

 Vector   76  Occ=0.000000D+00  E= 8.801050D-01  Symmetry=e
              MO Center= -1.6D-13,  3.6D-14, -8.9D-01, r^2= 6.7D+00
   Bfn.  Coefficient  Atom+Function         Bfn.  Coefficient  Atom+Function  
  ----- ------------  ---------------      ----- ------------  ---------------
    75     11.907636  2 Cl px                24     -8.141715  1 Na dxz        
    13     -7.946399  1 Na px                95     -7.138841  2 Cl dxz        
    10     -6.887100  1 Na px                45     -6.020722  1 Na fxzz       
    50      4.501858  1 Na fxxx              53      4.501858  1 Na fxyy       
     7     -4.189782  1 Na px                30     -3.443008  1 Na dxz        

 Vector   77  Occ=0.000000D+00  E= 8.801050D-01  Symmetry=e
              MO Center= -4.8D-16, -1.5D-16, -8.9D-01, r^2= 6.7D+00
   Bfn.  Coefficient  Atom+Function         Bfn.  Coefficient  Atom+Function  
  ----- ------------  ---------------      ----- ------------  ---------------
    76     11.907636  2 Cl py                26     -8.141715  1 Na dyz        
    14     -7.946399  1 Na py                97     -7.138841  2 Cl dyz        
    11     -6.887100  1 Na py                48     -6.020722  1 Na fyzz       
    51      4.501858  1 Na fxxy              56      4.501858  1 Na fyyy       
     8     -4.189782  1 Na py                32     -3.443008  1 Na dyz        

 Vector   78  Occ=0.000000D+00  E= 8.861446D-01  Symmetry=b2
              MO Center=  8.3D-16, -9.6D-16,  1.8D-01, r^2= 4.0D+00
   Bfn.  Coefficient  Atom+Function         Bfn.  Coefficient  Atom+Function  
  ----- ------------  ---------------      ----- ------------  ---------------
    44      3.403698  1 Na fxyz              54     -3.327523  1 Na fxyz       
    94      2.180520  2 Cl dxy               88     -2.168335  2 Cl dxy        
    29     -1.455027  1 Na dxy               23      0.773054  1 Na dxy        
    82     -0.447101  2 Cl dxy              113      0.449313  2 Cl fxyz       
    35      0.305086  1 Na dxy              103      0.049015  2 Cl fxyz       

 Vector   79  Occ=0.000000D+00  E= 8.861504D-01  Symmetry=b1
              MO Center= -7.6D-15,  1.5D-14,  1.8D-01, r^2= 4.0D+00
   Bfn.  Coefficient  Atom+Function         Bfn.  Coefficient  Atom+Function  
  ----- ------------  ---------------      ----- ------------  ---------------
    42      1.701841  1 Na fxxz              47     -1.701841  1 Na fyyz       
    52     -1.663754  1 Na fxxz              57      1.663754  1 Na fyyz       
    93      1.090262  2 Cl dxx               96     -1.090262  2 Cl dyy        
    87     -1.084184  2 Cl dxx               90      1.084184  2 Cl dyy        
    28     -0.727517  1 Na dxx               31      0.727517  1 Na dyy        

 Vector   80  Occ=0.000000D+00  E= 9.199784D-01  Symmetry=a1
              MO Center= -3.8D-14,  9.0D-15,  6.2D-01, r^2= 4.6D+00
   Bfn.  Coefficient  Atom+Function         Bfn.  Coefficient  Atom+Function  
  ----- ------------  ---------------      ----- ------------  ---------------
     3     11.673735  1 Na s                 64     -7.375802  2 Cl s          
     5      7.218390  1 Na s                 28     -4.674122  1 Na dxx        
    31     -4.674122  1 Na dyy               33     -4.386216  1 Na dzz        
    77      4.201878  2 Cl pz                15      4.144454  1 Na pz         
    98     -3.776529  2 Cl dzz               52     -3.511455  1 Na fxxz       

 Vector   81  Occ=0.000000D+00  E= 1.050672D+00  Symmetry=a1
              MO Center=  3.8D-14, -1.5D-14, -8.6D-01, r^2= 5.4D+00
   Bfn.  Coefficient  Atom+Function         Bfn.  Coefficient  Atom+Function  
  ----- ------------  ---------------      ----- ------------  ---------------
    12     20.571947  1 Na pz                77    -19.003877  2 Cl pz         
     3    -18.220793  1 Na s                 27     17.221689  1 Na dzz        
    64    -13.688391  2 Cl s                 98     11.405282  2 Cl dzz        
     9     11.227578  1 Na pz                42     -9.975961  1 Na fxxz       
    47     -9.975961  1 Na fyyz              65     -8.000660  2 Cl s          

 Vector   82  Occ=0.000000D+00  E= 1.090923D+00  Symmetry=e
              MO Center= -2.3D-16,  5.4D-17,  3.9D-01, r^2= 2.7D+00
   Bfn.  Coefficient  Atom+Function         Bfn.  Coefficient  Atom+Function  
  ----- ------------  ---------------      ----- ------------  ---------------
   110      2.397319  2 Cl fxxy             112     -1.597690  2 Cl fxyy       
    41     -1.302988  1 Na fxxy              43      0.868374  1 Na fxyy       
   115     -0.799122  2 Cl fyyy             109      0.532574  2 Cl fxxx       
    46      0.434326  1 Na fyyy              51      0.420760  1 Na fxxy       
   100     -0.301417  2 Cl fxxy              40     -0.289456  1 Na fxxx       

 Vector   83  Occ=0.000000D+00  E= 1.090923D+00  Symmetry=e
              MO Center=  2.5D-15, -2.3D-15,  3.9D-01, r^2= 2.7D+00
   Bfn.  Coefficient  Atom+Function         Bfn.  Coefficient  Atom+Function  
  ----- ------------  ---------------      ----- ------------  ---------------
   112      2.397319  2 Cl fxyy             110      1.597690  2 Cl fxxy       
    43     -1.302988  1 Na fxyy              41     -0.868374  1 Na fxxy       
   109     -0.799122  2 Cl fxxx             115     -0.532574  2 Cl fyyy       
    40      0.434326  1 Na fxxx              53      0.420760  1 Na fxyy       
   102     -0.301417  2 Cl fxyy              46      0.289456  1 Na fyyy       

 Vector   84  Occ=0.000000D+00  E= 1.149563D+00  Symmetry=e
              MO Center= -3.4D-15,  7.4D-15, -4.0D-02, r^2= 4.3D+00
   Bfn.  Coefficient  Atom+Function         Bfn.  Coefficient  Atom+Function  
  ----- ------------  ---------------      ----- ------------  ---------------
    11     16.649206  1 Na py                76    -14.040717  2 Cl py         
    26     12.693502  1 Na dyz                8      9.121535  1 Na py         
    97      6.198432  2 Cl dyz               10      4.828815  1 Na px         
    48      4.613900  1 Na fyzz              41     -4.240022  1 Na fxxy       
    46     -4.240019  1 Na fyyy              75     -4.072267  2 Cl px         

 Vector   85  Occ=0.000000D+00  E= 1.149563D+00  Symmetry=e
              MO Center=  1.7D-14, -4.8D-15, -4.0D-02, r^2= 4.3D+00
   Bfn.  Coefficient  Atom+Function         Bfn.  Coefficient  Atom+Function  
  ----- ------------  ---------------      ----- ------------  ---------------
    10     16.649206  1 Na px                75    -14.040717  2 Cl px         
    24     12.693502  1 Na dxz                7      9.121535  1 Na px         
    95      6.198432  2 Cl dxz               11     -4.828815  1 Na py         
    45      4.613900  1 Na fxzz              40     -4.240019  1 Na fxxx       
    43     -4.240022  1 Na fxyy              76      4.072267  2 Cl py         

 Vector   86  Occ=0.000000D+00  E= 1.254895D+00  Symmetry=b1
              MO Center= -2.3D-16, -6.3D-17,  4.6D-01, r^2= 3.1D+00
   Bfn.  Coefficient  Atom+Function         Bfn.  Coefficient  Atom+Function  
  ----- ------------  ---------------      ----- ------------  ---------------
   111      2.957280  2 Cl fxxz             116     -2.957280  2 Cl fyyz       
    42      1.946584  1 Na fxxz              47     -1.946584  1 Na fyyz       
    22      1.657291  1 Na dxx               25     -1.657291  1 Na dyy        
    93     -1.504245  2 Cl dxx               96      1.504245  2 Cl dyy        
    28     -0.264729  1 Na dxx               31      0.264729  1 Na dyy        

 Vector   87  Occ=0.000000D+00  E= 1.254896D+00  Symmetry=b2
              MO Center=  3.1D-16, -5.3D-17,  4.6D-01, r^2= 3.1D+00
   Bfn.  Coefficient  Atom+Function         Bfn.  Coefficient  Atom+Function  
  ----- ------------  ---------------      ----- ------------  ---------------
   113      5.914579  2 Cl fxyz              44      3.893174  1 Na fxyz       
    23      3.314585  1 Na dxy               94     -3.008495  2 Cl dxy        
    29     -0.529458  1 Na dxy              103     -0.483191  2 Cl fxyz       
    35      0.203374  1 Na dxy               54      0.104147  1 Na fxyz       
    82      0.062717  2 Cl dxy               88      0.046683  2 Cl dxy        

 Vector   88  Occ=0.000000D+00  E= 1.375861D+00  Symmetry=e
              MO Center=  9.4D-16, -2.1D-16,  4.7D-01, r^2= 4.4D+00
   Bfn.  Coefficient  Atom+Function         Bfn.  Coefficient  Atom+Function  
  ----- ------------  ---------------      ----- ------------  ---------------
    69      6.965350  2 Cl px                24      6.417542  1 Na dxz        
   109     -6.198621  2 Cl fxxx             112     -6.198639  2 Cl fxyy       
   114     -6.087578  2 Cl fxzz              10      5.395154  1 Na px         
    75      5.105185  2 Cl px                55     -4.861797  1 Na fxzz       
    30     -4.647450  1 Na dxz               66      3.164480  2 Cl px         

 Vector   89  Occ=0.000000D+00  E= 1.375861D+00  Symmetry=e
              MO Center= -4.5D-14,  1.5D-13,  4.7D-01, r^2= 4.4D+00
   Bfn.  Coefficient  Atom+Function         Bfn.  Coefficient  Atom+Function  
  ----- ------------  ---------------      ----- ------------  ---------------
    70      6.965350  2 Cl py                26      6.417542  1 Na dyz        
   110     -6.198639  2 Cl fxxy             115     -6.198621  2 Cl fyyy       
   117     -6.087578  2 Cl fyzz              11      5.395154  1 Na py         
    76      5.105185  2 Cl py                58     -4.861797  1 Na fyzz       
    32     -4.647450  1 Na dyz               67      3.164480  2 Cl py         

 Vector   90  Occ=0.000000D+00  E= 1.425287D+00  Symmetry=a1
              MO Center=  4.9D-14, -1.7D-13,  1.2D+00, r^2= 3.8D+00
   Bfn.  Coefficient  Atom+Function         Bfn.  Coefficient  Atom+Function  
  ----- ------------  ---------------      ----- ------------  ---------------
    77     10.011729  2 Cl pz                 5      6.625889  1 Na s          
    33     -6.152834  1 Na dzz               71      6.124094  2 Cl pz         
   118     -5.675392  2 Cl fzzz              59     -4.995924  1 Na fzzz       
   111     -4.519914  2 Cl fxxz             116     -4.519914  2 Cl fyyz       
    15      4.429884  1 Na pz                 3      3.462455  1 Na s          

 Vector   91  Occ=0.000000D+00  E= 1.578721D+00  Symmetry=a1
              MO Center= -1.2D-14,  3.1D-14, -2.6D-01, r^2= 4.7D+00
   Bfn.  Coefficient  Atom+Function         Bfn.  Coefficient  Atom+Function  
  ----- ------------  ---------------      ----- ------------  ---------------
    77     26.309082  2 Cl pz                 3     25.600404  1 Na s          
    98    -13.212565  2 Cl dzz               65     10.968621  2 Cl s          
    33     -9.833290  1 Na dzz               12     -9.765526  1 Na pz         
[...]
    42     -0.641713  1 Na fxxz              47      0.641713  1 Na fyyz       

 Vector   97  Occ=0.000000D+00  E= 2.307372D+00  Symmetry=b2
              MO Center=  1.4D-15,  6.9D-16,  4.6D-01, r^2= 1.7D+00
   Bfn.  Coefficient  Atom+Function         Bfn.  Coefficient  Atom+Function  
  ----- ------------  ---------------      ----- ------------  ---------------
    88      3.062323  2 Cl dxy               82     -2.317731  2 Cl dxy        
    94     -1.822867  2 Cl dxy               54      1.649491  1 Na fxyz       
    44     -1.283632  1 Na fxyz              29      0.911292  1 Na dxy        
    23     -0.401470  1 Na dxy              113     -0.288331  2 Cl fxyz       
    35     -0.179089  1 Na dxy              103      0.166551  2 Cl fxyz       

 Vector   98  Occ=0.000000D+00  E= 2.387141D+00  Symmetry=e
              MO Center=  4.4D-16,  1.1D-15,  1.9D-01, r^2= 1.8D+00
   Bfn.  Coefficient  Atom+Function         Bfn.  Coefficient  Atom+Function  
  ----- ------------  ---------------      ----- ------------  ---------------
    11     13.243536  1 Na py                76     -9.412413  2 Cl py         
    26      8.735761  1 Na dyz                8      7.613413  1 Na py         
    10      6.053919  1 Na px                75     -4.302626  2 Cl px         
    24      3.993314  1 Na dxz               97      3.972442  2 Cl dyz        
    41     -3.705659  1 Na fxxy              46     -3.705685  1 Na fyyy       

 Vector   99  Occ=0.000000D+00  E= 2.387141D+00  Symmetry=e
              MO Center=  1.4D-14, -6.0D-15,  1.9D-01, r^2= 1.8D+00
   Bfn.  Coefficient  Atom+Function         Bfn.  Coefficient  Atom+Function  
  ----- ------------  ---------------      ----- ------------  ---------------
    10     13.243536  1 Na px                75     -9.412413  2 Cl px         
    24      8.735761  1 Na dxz                7      7.613413  1 Na px         
    11     -6.053919  1 Na py                76      4.302626  2 Cl py         
    26     -3.993314  1 Na dyz               95      3.972442  2 Cl dxz        
    40     -3.705685  1 Na fxxx              43     -3.705659  1 Na fxyy       

 Vector  100  Occ=0.000000D+00  E= 2.586508D+00  Symmetry=a1
              MO Center= -5.5D-16,  1.6D-16, -6.8D-01, r^2= 3.2D+00
   Bfn.  Coefficient  Atom+Function         Bfn.  Coefficient  Atom+Function  
  ----- ------------  ---------------      ----- ------------  ---------------
    12     23.168426  1 Na pz                64    -17.812023  2 Cl s          
     3     17.478729  1 Na s                  9     13.287538  1 Na pz         
    42     -8.403217  1 Na fxxz              47     -8.403217  1 Na fyyz       
     5      6.909225  1 Na s                 65      6.470092  2 Cl s          
    33     -6.125664  1 Na dzz               49     -5.885826  1 Na fzzz       

 Vector  101  Occ=0.000000D+00  E= 2.766155D+00  Symmetry=e
              MO Center= -3.6D-18,  2.1D-17,  5.0D-01, r^2= 1.2D+00
   Bfn.  Coefficient  Atom+Function         Bfn.  Coefficient  Atom+Function  
  ----- ------------  ---------------      ----- ------------  ---------------
   102      3.269446  2 Cl fxyy             112     -2.239938  2 Cl fxyy       
    99     -1.089795  2 Cl fxxx             100     -0.778120  2 Cl fxxy       
   109      0.746808  2 Cl fxxx             110      0.533100  2 Cl fxxy       
    43      0.463243  1 Na fxyy             105      0.259369  2 Cl fyyy       
   115     -0.177738  2 Cl fyyy              40     -0.154427  1 Na fxxx       

 Vector  102  Occ=0.000000D+00  E= 2.766155D+00  Symmetry=e
              MO Center= -3.4D-18,  2.2D-18,  5.0D-01, r^2= 1.2D+00
   Bfn.  Coefficient  Atom+Function         Bfn.  Coefficient  Atom+Function  
  ----- ------------  ---------------      ----- ------------  ---------------
   100      3.269446  2 Cl fxxy             110     -2.239938  2 Cl fxxy       
   105     -1.089795  2 Cl fyyy             102      0.778120  2 Cl fxyy       
   115      0.746808  2 Cl fyyy             112     -0.533100  2 Cl fxyy       
    41      0.463243  1 Na fxxy              99     -0.259369  2 Cl fxxx       
   109      0.177738  2 Cl fxxx              46     -0.154427  1 Na fyyy       

 Vector  103  Occ=0.000000D+00  E= 2.891590D+00  Symmetry=b2
              MO Center=  2.1D-17, -5.1D-17,  5.2D-01, r^2= 1.4D+00
   Bfn.  Coefficient  Atom+Function         Bfn.  Coefficient  Atom+Function  
  ----- ------------  ---------------      ----- ------------  ---------------
   103      5.946970  2 Cl fxyz             113     -5.531243  2 Cl fxyz       
    44     -2.202617  1 Na fxyz              23     -1.864253  1 Na dxy        
    94      1.709302  2 Cl dxy               29      0.232957  1 Na dxy        
    35     -0.088784  1 Na dxy               82      0.056602  2 Cl dxy        

 Vector  104  Occ=0.000000D+00  E= 2.891627D+00  Symmetry=b1
              MO Center= -8.7D-18,  9.5D-18,  5.2D-01, r^2= 1.4D+00
   Bfn.  Coefficient  Atom+Function         Bfn.  Coefficient  Atom+Function  
  ----- ------------  ---------------      ----- ------------  ---------------
   101      2.973493  2 Cl fxxz             106     -2.973493  2 Cl fyyz       
   111     -2.765643  2 Cl fxxz             116      2.765643  2 Cl fyyz       
    42     -1.101365  1 Na fxxz              47      1.101365  1 Na fyyz       
    22     -0.932148  1 Na dxx               25      0.932148  1 Na dyy        
    93      0.854589  2 Cl dxx               96     -0.854589  2 Cl dyy        

 Vector  105  Occ=0.000000D+00  E= 3.068134D+00  Symmetry=e
              MO Center= -2.0D-18,  1.8D-18,  6.2D-01, r^2= 2.3D+00
   Bfn.  Coefficient  Atom+Function         Bfn.  Coefficient  Atom+Function  
  ----- ------------  ---------------      ----- ------------  ---------------
    11     15.587764  1 Na py                10    -10.844383  1 Na px         
    70      9.395539  2 Cl py                26      9.182154  1 Na dyz        
     8      8.794763  1 Na py               117     -7.037605  2 Cl fyzz       
    69     -6.536462  2 Cl px                76     -6.438729  2 Cl py         
    97      6.446869  2 Cl dyz               24     -6.388010  1 Na dxz        

 Vector  106  Occ=0.000000D+00  E= 3.068134D+00  Symmetry=e
              MO Center=  5.7D-14,  4.0D-14,  6.2D-01, r^2= 2.3D+00
   Bfn.  Coefficient  Atom+Function         Bfn.  Coefficient  Atom+Function  
  ----- ------------  ---------------      ----- ------------  ---------------
    10     15.587764  1 Na px                11     10.844383  1 Na py         
    69      9.395539  2 Cl px                24      9.182154  1 Na dxz        
     7      8.794763  1 Na px               114     -7.037605  2 Cl fxzz       
    70      6.536462  2 Cl py                75     -6.438729  2 Cl px         
    95      6.446869  2 Cl dxz               26      6.388010  1 Na dyz        

 Vector  107  Occ=0.000000D+00  E= 3.183681D+00  Symmetry=e
              MO Center= -1.5D-17,  9.5D-15,  4.3D-01, r^2= 2.5D+00
   Bfn.  Coefficient  Atom+Function         Bfn.  Coefficient  Atom+Function  
  ----- ------------  ---------------      ----- ------------  ---------------
    76     17.653005  2 Cl py                11    -15.726102  1 Na py         
    70     15.591888  2 Cl py                 8     -8.914243  1 Na py         
    67      7.960288  2 Cl py               107     -7.623887  2 Cl fyzz       
   110     -7.572077  2 Cl fxxy             115     -7.572019  2 Cl fyyy       
    97     -7.360775  2 Cl dyz               26     -6.886832  1 Na dyz        

 Vector  108  Occ=0.000000D+00  E= 3.183681D+00  Symmetry=e
              MO Center= -1.2D-14, -1.7D-17,  4.3D-01, r^2= 2.5D+00
   Bfn.  Coefficient  Atom+Function         Bfn.  Coefficient  Atom+Function  
  ----- ------------  ---------------      ----- ------------  ---------------
    75     17.653005  2 Cl px                10    -15.726102  1 Na px         
    69     15.591888  2 Cl px                 7     -8.914243  1 Na px         
    66      7.960288  2 Cl px               104     -7.623887  2 Cl fxzz       
   109     -7.572019  2 Cl fxxx             112     -7.572077  2 Cl fxyy       
    95     -7.360775  2 Cl dxz               24     -6.886832  1 Na dxz        

 Vector  109  Occ=0.000000D+00  E= 3.225632D+00  Symmetry=a1
              MO Center= -7.6D-14,  6.4D-15,  9.5D-01, r^2= 2.4D+00
   Bfn.  Coefficient  Atom+Function         Bfn.  Coefficient  Atom+Function  
  ----- ------------  ---------------      ----- ------------  ---------------
    71     18.563709  2 Cl pz                77     13.269078  2 Cl pz         
    12    -10.074344  1 Na pz                68      9.497863  2 Cl pz         
   111     -9.500072  2 Cl fxxz             116     -9.500072  2 Cl fyyz       
   118     -9.428003  2 Cl fzzz              74     -7.741386  2 Cl pz         
   101     -6.642699  2 Cl fxxz             106     -6.642699  2 Cl fyyz       

 Vector  110  Occ=0.000000D+00  E= 3.262020D+00  Symmetry=a1
              MO Center= -7.6D-16, -6.6D-18,  3.0D-01, r^2= 1.9D+00
   Bfn.  Coefficient  Atom+Function         Bfn.  Coefficient  Atom+Function  
  ----- ------------  ---------------      ----- ------------  ---------------
    12     14.071968  1 Na pz                77    -12.214983  2 Cl pz         
     3     -8.405486  1 Na s                  9      8.432831  1 Na pz         
    27      7.910173  1 Na dzz               64     -6.898315  2 Cl s          
    98      6.159154  2 Cl dzz              111      5.483356  2 Cl fxxz       
   116      5.483356  2 Cl fyyz              33      4.566989  1 Na dzz        

 Vector  111  Occ=0.000000D+00  E= 4.186265D+00  Symmetry=a1
              MO Center= -3.0D-14,  4.5D-14,  5.0D-01, r^2= 2.2D+00
   Bfn.  Coefficient  Atom+Function         Bfn.  Coefficient  Atom+Function  
  ----- ------------  ---------------      ----- ------------  ---------------
    64     53.117733  2 Cl s                 87    -14.620042  2 Cl dxx        
    90    -14.620042  2 Cl dyy               92    -14.002084  2 Cl dzz        
    63    -13.787272  2 Cl s                 93     -7.257722  2 Cl dxx        
    96     -7.257722  2 Cl dyy               98     -6.898487  2 Cl dzz        
     3     -6.634813  1 Na s                  5     -5.757348  1 Na s          

 Vector  112  Occ=0.000000D+00  E= 5.153036D+00  Symmetry=a1
              MO Center= -2.4D-14, -3.3D-14, -1.6D-01, r^2= 6.8D+00
   Bfn.  Coefficient  Atom+Function         Bfn.  Coefficient  Atom+Function  
  ----- ------------  ---------------      ----- ------------  ---------------
     3     79.336997  1 Na s                 64    -52.493223  2 Cl s          
    12     49.902615  1 Na pz                65     28.133867  2 Cl s          
     9     27.899255  1 Na pz                33    -23.199643  1 Na dzz        
    28    -22.591629  1 Na dxx               31    -22.591629  1 Na dyy        
     2     22.068734  1 Na s                  5     21.317808  1 Na s          

 Vector  113  Occ=0.000000D+00  E= 5.983931D+00  Symmetry=a1
              MO Center= -1.5D-14, -1.2D-14,  6.7D-01, r^2= 3.5D+00
   Bfn.  Coefficient  Atom+Function         Bfn.  Coefficient  Atom+Function  
  ----- ------------  ---------------      ----- ------------  ---------------
    71     42.186701  2 Cl pz                68     20.113853  2 Cl pz         
    64    -17.385904  2 Cl s                 77     17.102309  2 Cl pz         
   108    -16.971751  2 Cl fzzz             101    -16.632650  2 Cl fxxz       
   106    -16.632650  2 Cl fyyz               3     16.010953  1 Na s          
    74    -11.872844  2 Cl pz               111    -11.866857  2 Cl fxxz       

 Vector  114  Occ=0.000000D+00  E= 6.088786D+00  Symmetry=e
              MO Center=  1.8D-16, -3.5D-14,  5.1D-01, r^2= 2.7D+00
   Bfn.  Coefficient  Atom+Function         Bfn.  Coefficient  Atom+Function  
  ----- ------------  ---------------      ----- ------------  ---------------
    70     42.315561  2 Cl py                67     20.162170  2 Cl py         
   107    -17.010160  2 Cl fyzz             100    -16.870663  2 Cl fxxy       
   105    -16.870669  2 Cl fyyy              73    -11.862794  2 Cl py         
   110    -11.566942  2 Cl fxxy             115    -11.566933  2 Cl fyyy       
    76     11.495189  2 Cl py               117    -11.244915  2 Cl fyzz       

 Vector  115  Occ=0.000000D+00  E= 6.088786D+00  Symmetry=e
              MO Center=  1.8D-14,  7.8D-17,  5.1D-01, r^2= 2.7D+00
   Bfn.  Coefficient  Atom+Function         Bfn.  Coefficient  Atom+Function  
  ----- ------------  ---------------      ----- ------------  ---------------
    69     42.315561  2 Cl px                66     20.162170  2 Cl px         
   104    -17.010160  2 Cl fxzz              99    -16.870669  2 Cl fxxx       
   102    -16.870663  2 Cl fxyy              72    -11.862794  2 Cl px         
   109    -11.566933  2 Cl fxxx             112    -11.566942  2 Cl fxyy       
    75     11.495189  2 Cl px               114    -11.244915  2 Cl fxzz       

 Vector  116  Occ=0.000000D+00  E= 8.762645D+00  Symmetry=a1
              MO Center= -9.3D-15,  1.4D-14,  4.5D-01, r^2= 1.4D+00
   Bfn.  Coefficient  Atom+Function         Bfn.  Coefficient  Atom+Function  
  ----- ------------  ---------------      ----- ------------  ---------------
    62     20.128867  2 Cl s                 64     16.317394  2 Cl s          
    61     11.490050  2 Cl s                 81     -7.443117  2 Cl dxx        
    84     -7.443117  2 Cl dyy               86     -7.319229  2 Cl dzz        
    92     -7.141329  2 Cl dzz               87     -6.657280  2 Cl dxx        
    90     -6.657280  2 Cl dyy                3     -6.053621  1 Na s          

 Vector  117  Occ=0.000000D+00  E= 1.164814D+01  Symmetry=a1
              MO Center= -1.1D-15,  1.7D-15, -4.7D-02, r^2= 1.0D+01
   Bfn.  Coefficient  Atom+Function         Bfn.  Coefficient  Atom+Function  
  ----- ------------  ---------------      ----- ------------  ---------------
    64     53.723688  2 Cl s                  3     28.289460  1 Na s          
    65     24.425317  2 Cl s                 62    -23.850027  2 Cl s          
    98    -23.472154  2 Cl dzz               93    -21.844666  2 Cl dxx        
    96    -21.844666  2 Cl dyy               61    -18.517877  2 Cl s          
    77     16.888581  2 Cl pz                87    -16.778820  2 Cl dxx        


------------------------------------------------------------
EAF file 0: "./nacl_aug-cc-pvtz.aoints.0" size=12058624 bytes
------------------------------------------------------------
               write      read    awrite     aread      wait
               -----      ----    ------     -----      ----
     calls:       23         7         0       154       154
   data(b): 1.21e+07  3.67e+06  0.00e+00  8.07e+07
   time(s): 0.00e+00  0.00e+00  0.00e+00  0.00e+00  0.00e+00
rate(mb/s): 0.00e+00  0.00e+00
------------------------------------------------------------


 center of mass
 --------------
 x =   0.00000000 y =   0.00000000 z =  -0.00911367

 moments of inertia (a.u.)
 ------------------
          79.721070261053           0.000000000000           0.000000000000
           0.000000000000          79.721070261053           0.000000000000
           0.000000000000           0.000000000000           0.000000000000

     Multipole analysis of the density
     ---------------------------------

     L   x y z        total         alpha         beta         nuclear
     -   - - -        -----         -----         ----         -------
     0   0 0 0     -0.000000    -14.000000    -14.000000     28.000000

     1   1 0 0      0.000000      0.000000      0.000000      0.000000
     1   0 1 0      0.000000      0.000000      0.000000      0.000000
     1   0 0 1     -1.429470     -0.714735     -0.714735      0.000000

     2   2 0 0    -15.060756     -7.530378     -7.530378      0.000000
     2   1 1 0      0.000000      0.000000      0.000000      0.000000
     2   1 0 1      0.000000      0.000000      0.000000      0.000000
     2   0 2 0    -15.060756     -7.530378     -7.530378      0.000000
     2   0 1 1      0.000000      0.000000      0.000000      0.000000
     2   0 0 2    -14.496140    -26.440432    -26.440432     38.384723


 Parallel integral file used     149 records with       0 large values


 Task  times  cpu:       15.6s     wall:       15.6s
 Summary of allocated global arrays
-----------------------------------
  No active global arrays



                         GA Statistics for process    0
                         ------------------------------

       create   destroy   get      put      acc     scatter   gather  read&inc
calls:  249      249     2.08e+04 8429     2031        0        0      747     
number of processes/call 0.00e+00 0.00e+00 0.00e+00 0.00e+00 0.00e+00
bytes total:             1.09e+08 2.80e+07 6.75e+07 0.00e+00 0.00e+00 5.98e+03
bytes remote:            0.00e+00 0.00e+00 0.00e+00 0.00e+00 0.00e+00 0.00e+00
Max memory consumed for GA by this process: 4344288 bytes
MA_summarize_allocated_blocks: starting scan ...
MA_summarize_allocated_blocks: scan completed: 0 heap blocks, 0 stack blocks
MA usage statistics:

	allocation statistics:
					      heap	     stack
					      ----	     -----
	current number of blocks	         0	         0
	maximum number of blocks	        22	        57
	current total bytes		         0	         0
	maximum total bytes		  69938288	  29329384
	maximum total K-bytes		     69939	     29330
	maximum total M-bytes		        70	        30


                                NWChem Input Module
                                -------------------





                                     CITATION
                                     --------
                Please cite the following reference when publishing
                           results obtained with NWChem:

                 M. Valiev, E.J. Bylaska, N. Govind, K. Kowalski,
              T.P. Straatsma, H.J.J. van Dam, D. Wang, J. Nieplocha,
                        E. Apra, T.L. Windus, W.A. de Jong
                 "NWChem: a comprehensive and scalable open-source
                  solution for large scale molecular simulations"
                      Comput. Phys. Commun. 181, 1477 (2010)
                           doi:10.1016/j.cpc.2010.04.018

                                      AUTHORS
                                      -------
     E. Apra, E. J. Bylaska, N. Govind, K. Kowalski, M. Valiev, W. A. de Jong,
      T. P. Straatsma, H. J. J. van Dam, D. Wang, T. L. Windus, N. P. Bauman,
       A. Panyala, J. Hammond, J. Autschbach, K. Bhaskaran-Nair, J. Brabec,
    K. Lopata, S. A. Fischer, S. Krishnamoorthy, M. Jacquelin, W. Ma, M. Klemm,
       O. Villa, Y. Chen, V. Anisimov, F. Aquino, S. Hirata, M. T. Hackler,
           Eric Hermes, L. Jensen, J. E. Moore, J. C. Becca, V. Konjkov,
            D. Mejia-Rodriguez, T. Risthaus, M. Malagoli, A. Marenich,
   A. Otero-de-la-Roza, J. Mullin, P. Nichols, R. Peverati, J. Pittner, Y. Zhao,
        P.-D. Fan, A. Fonari, M. J. Williamson, R. J. Harrison, J. R. Rehr,
      M. Dupuis, D. Silverstein, D. M. A. Smith, J. Nieplocha, V. Tipparaju,
      M. Krishnan, B. E. Van Kuiken, A. Vazquez-Mayagoitia, M. Swart, Q. Wu,
   T. Van Voorhis, A. A. Auer, M. Nooijen, L. D. Crosby, E. Brown, G. Cisneros,
     G. I. Fann, H. Fruchtl, J. Garza, K. Hirao, R. A. Kendall, J. A. Nichols,
       K. Tsemekhman, K. Wolinski, J. Anchell, D. E. Bernholdt, P. Borowski,
       T. Clark, D. Clerc, H. Dachsel, M. J. O. Deegan, K. Dyall, D. Elwood,
      E. Glendening, M. Gutowski, A. C. Hess, J. Jaffe, B. G. Johnson, J. Ju,
        R. Kobayashi, R. Kutteh, Z. Lin, R. Littlefield, X. Long, B. Meng,
      T. Nakajima, S. Niu, L. Pollack, M. Rosing, K. Glaesemann, G. Sandrone,
      M. Stave, H. Taylor, G. Thomas, J. H. van Lenthe, A. T. Wong, Z. Zhang.

 Total times  cpu:       15.6s     wall:       15.6s
