 argument  1 = nacl_aug-cc-pvqz.inp
                                         
                                         


             Northwest Computational Chemistry Package (NWChem) 7.0.0
             --------------------------------------------------------


                    Environmental Molecular Sciences Laboratory
                       Pacific Northwest National Laboratory
                                Richland, WA 99352

                              Copyright (c) 1994-2019
                       Pacific Northwest National Laboratory
                            Battelle Memorial Institute

             NWChem is an open-source computational chemistry package
                        distributed under the terms of the
                      Educational Community License (ECL) 2.0
             A copy of the license is included with this distribution
                              in the LICENSE.TXT file

                                  ACKNOWLEDGMENT
                                  --------------

            This software and its documentation were developed at the
            EMSL at Pacific Northwest National Laboratory, a multiprogram
            national laboratory, operated for the U.S. Department of Energy
            by Battelle under Contract Number DE-AC05-76RL01830. Support
            for this work was provided by the Department of Energy Office
            of Biological and Environmental Research, Office of Basic
            Energy Sciences, and the Office of Advanced Scientific Computing.


           Job information
           ---------------

    hostname        = Amanda-Dewyers-MacBook-Air.local
    program         = nwchem
    date            = Fri Sep 11 17:07:50 2020

    compiled        = Fri_Jul_03_06:05:09_2020
    source          = /private/tmp/nwchem-20200703-71421-tc8c0i/nwchem-7.0.0
    nwchem branch   = 7.0.0
    nwchem revision = 2c9a1c7c
    ga revision     = 5.7.1
    use scalapack   = T
    input           = nacl_aug-cc-pvqz.inp
    prefix          = nacl_aug-cc-pvqz.
    data base       = ./nacl_aug-cc-pvqz.db
    status          = startup
    nproc           =        1
    time left       =     -1s



           Memory information
           ------------------

    heap     =   13107196 doubles =    100.0 Mbytes
    stack    =   13107201 doubles =    100.0 Mbytes
    global   =   26214400 doubles =    200.0 Mbytes (distinct from heap & stack)
    total    =   52428797 doubles =    400.0 Mbytes
    verify   = yes
    hardfail = no 


           Directory information
           ---------------------

  0 permanent = .
  0 scratch   = .




                                NWChem Input Module
                                -------------------


                                     test case
                                     ---------
 ORDER OF PRIMARY AXIS IS BEING SET TO 4
 C4V symmetry detected

          ------
          auto-z
          ------
  no constraints, skipping    0.0000000000000000     
  no constraints, skipping    0.0000000000000000     


                             Geometry "geometry" -> ""
                             -------------------------

 Output coordinates in a.u. (scale by  1.000000000 to convert to a.u.)

  No.       Tag          Charge          X              Y              Z
 ---- ---------------- ---------- -------------- -------------- --------------
    1 Na                  11.0000     0.00000000     0.00000000    -1.45555396
    2 Cl                  17.0000     0.00000000     0.00000000     0.94182903

      Atomic Mass 
      ----------- 

      Na                22.989800
      Cl                34.968850


 Effective nuclear repulsion energy (a.u.)      78.0017214429

            Nuclear Dipole moment (a.u.) 
            ----------------------------
        X                 Y               Z
 ---------------- ---------------- ----------------
     0.0000000000     0.0000000000     0.0000000000

      Symmetry information
      --------------------

 Group name             C4v       
 Group number             18
 Group order               8
 No. of unique centers     2

      Symmetry unique atoms

     1    2



                                Z-matrix (autoz)
                                -------- 

 Units are Angstrom for bonds and degrees for angles

      Type          Name      I     J     K     L     M      Value
      ----------- --------  ----- ----- ----- ----- ----- ----------
    1 Stretch                  1     2                       1.26864


            XYZ format geometry
            -------------------
     2
 geometry
 Na                    0.00000000     0.00000000    -0.77024604
 Cl                    0.00000000     0.00000000     0.49839450

 ==============================================================================
                                internuclear distances
 ------------------------------------------------------------------------------
       center one      |      center two      | atomic units |       a.u.
 ------------------------------------------------------------------------------
    2 Cl               |   1 Na               |     2.39738  |     2.39738
 ------------------------------------------------------------------------------
                         number of included internuclear distances:          1
 ==============================================================================



  library name resolved from: .nwchemrc
  library file name is: </usr/local/Cellar/nwchem/7.0.0_2/share/nwchem/libraries/>
  


 Summary of "ao basis" -> "" (cartesian)
 ------------------------------------------------------------------------------
       Tag                 Description            Shells   Functions and Types
 ---------------- ------------------------------  ------  ---------------------
 *                        aug-cc-pvqz                 on all atoms 



                                 NWChem DFT Module
                                 -----------------


                                     test case


                      Basis "ao basis" -> "ao basis" (cartesian)
                      -----
  Na (Sodium)
  -----------
            Exponent  Coefficients 
       -------------- ---------------------------------------------------------
  1 S  1.22400000E+06  0.000005
  1 S  1.83200000E+05  0.000037
  1 S  4.17000000E+04  0.000196
  1 S  1.18100000E+04  0.000827
  1 S  3.85300000E+03  0.003003
  1 S  1.39100000E+03  0.009703
  1 S  5.42500000E+02  0.028234
  1 S  2.24900000E+02  0.073206
  1 S  9.79300000E+01  0.162897
  1 S  4.43100000E+01  0.288708
  1 S  2.06500000E+01  0.346829
  1 S  9.72900000E+00  0.206865
  1 S  4.22800000E+00  0.032801
  1 S  1.96900000E+00 -0.000648
  1 S  8.89000000E-01  0.001459
  1 S  3.96400000E-01 -0.000178

  2 S  1.22400000E+06 -0.000001
  2 S  1.83200000E+05 -0.000009
  2 S  4.17000000E+04 -0.000048
  2 S  1.18100000E+04 -0.000202
  2 S  3.85300000E+03 -0.000736
  2 S  1.39100000E+03 -0.002387
  2 S  5.42500000E+02 -0.007050
  2 S  2.24900000E+02 -0.018786
  2 S  9.79300000E+01 -0.044615
  2 S  4.43100000E+01 -0.089774
  2 S  2.06500000E+01 -0.142940
  2 S  9.72900000E+00 -0.124315
  2 S  4.22800000E+00  0.099965
  2 S  1.96900000E+00  0.417080
  2 S  8.89000000E-01  0.475123
  2 S  3.96400000E-01  0.163268

  3 S  1.22400000E+06  0.000000
  3 S  1.83200000E+05  0.000001
  3 S  4.17000000E+04  0.000007
  3 S  1.18100000E+04  0.000030
  3 S  3.85300000E+03  0.000111
  3 S  1.39100000E+03  0.000359
  3 S  5.42500000E+02  0.001063
  3 S  2.24900000E+02  0.002827
  3 S  9.79300000E+01  0.006767
  3 S  4.43100000E+01  0.013648
  3 S  2.06500000E+01  0.022281
  3 S  9.72900000E+00  0.019601
  3 S  4.22800000E+00 -0.016771
  3 S  1.96900000E+00 -0.077373
  3 S  8.89000000E-01 -0.113501
  3 S  3.96400000E-01 -0.139130

  4 S  6.99300000E-02  1.000000

  5 S  3.28900000E-02  1.000000

  6 S  1.61200000E-02  1.000000

  7 S  5.03000000E-03  1.000000

  8 P  4.13400000E+02  0.000908
  8 P  9.79800000E+01  0.007418
  8 P  3.13700000E+01  0.035746
  8 P  1.16200000E+01  0.118520
  8 P  4.67100000E+00  0.261403
  8 P  1.91800000E+00  0.378395
  8 P  7.77500000E-01  0.334632
  8 P  3.01300000E-01  0.126844
  8 P  2.27500000E-01 -0.014712

  9 P  4.13400000E+02 -0.000090
  9 P  9.79800000E+01 -0.000739
  9 P  3.13700000E+01 -0.003573
  9 P  1.16200000E+01 -0.012014
  9 P  4.67100000E+00 -0.026718
  9 P  1.91800000E+00 -0.039275
  9 P  7.77500000E-01 -0.037608
  9 P  3.01300000E-01 -0.043323
  9 P  2.27500000E-01  0.051800

 10 P  7.52700000E-02  1.000000

 11 P  3.12600000E-02  1.000000

 12 P  1.34200000E-02  1.000000

 13 P  7.72000000E-03  1.000000

 14 D  1.53800000E-01  1.000000

 15 D  8.65000000E-02  1.000000

 16 D  4.87000000E-02  1.000000

 17 D  2.10000000E-02  1.000000

 18 F  1.91200000E-01  1.000000

 19 F  1.03600000E-01  1.000000

 20 F  4.53000000E-02  1.000000

 21 G  1.72200000E-01  1.000000

 22 G  8.66000000E-02  1.000000

  Cl (Chlorine)
  -------------
            Exponent  Coefficients 
       -------------- ---------------------------------------------------------
  1 S  8.34900000E+05  0.000023
  1 S  1.25000000E+05  0.000180
  1 S  2.84300000E+04  0.000948
  1 S  8.03300000E+03  0.004001
  1 S  2.60800000E+03  0.014463
  1 S  9.33900000E+02  0.045659
  1 S  3.60000000E+02  0.123248
  1 S  1.47000000E+02  0.264369
  1 S  6.28800000E+01  0.382989
  1 S  2.76000000E+01  0.270934
  1 S  1.10800000E+01  0.047140
  1 S  5.07500000E+00 -0.003718
  1 S  2.27800000E+00  0.002192

  2 S  8.34900000E+05 -0.000006
  2 S  1.25000000E+05 -0.000050
  2 S  2.84300000E+04 -0.000266
  2 S  8.03300000E+03 -0.001125
  2 S  2.60800000E+03 -0.004105
  2 S  9.33900000E+02 -0.013199
  2 S  3.60000000E+02 -0.037534
  2 S  1.47000000E+02 -0.089723
  2 S  6.28800000E+01 -0.167671
  2 S  2.76000000E+01 -0.174763
  2 S  1.10800000E+01  0.114909
  2 S  5.07500000E+00  0.563618
  2 S  2.27800000E+00  0.441606

  3 S  8.34900000E+05  0.000002
  3 S  1.25000000E+05  0.000015
  3 S  2.84300000E+04  0.000081
  3 S  8.03300000E+03  0.000340
  3 S  2.60800000E+03  0.001246
  3 S  9.33900000E+02  0.003996
  3 S  3.60000000E+02  0.011475
  3 S  1.47000000E+02  0.027550
  3 S  6.28800000E+01  0.053292
  3 S  2.76000000E+01  0.057125
  3 S  1.10800000E+01 -0.039520
  3 S  5.07500000E+00 -0.264343
  3 S  2.27800000E+00 -0.349291

  4 S  7.77500000E-01  1.000000

  5 S  3.52700000E-01  1.000000

  6 S  1.43100000E-01  1.000000

  7 S  5.19000000E-02  1.000000

  8 P  1.70300000E+03  0.000474
  8 P  4.03600000E+02  0.004064
  8 P  1.30300000E+02  0.021336
  8 P  4.90500000E+01  0.079461
  8 P  2.02600000E+01  0.208927
  8 P  8.78700000E+00  0.364945
  8 P  3.91900000E+00  0.371725
  8 P  1.76500000E+00  0.146292

  9 P  1.70300000E+03 -0.000128
  9 P  4.03600000E+02 -0.001094
  9 P  1.30300000E+02 -0.005834
  9 P  4.90500000E+01 -0.021926
  9 P  2.02600000E+01 -0.060139
  9 P  8.78700000E+00 -0.106929
  9 P  3.91900000E+00 -0.122454
  9 P  1.76500000E+00  0.038362

 10 P  7.20700000E-01  1.000000

 11 P  2.83900000E-01  1.000000

 12 P  1.06000000E-01  1.000000

 13 P  3.76000000E-02  1.000000

 14 D  2.54000000E-01  1.000000

 15 D  6.28000000E-01  1.000000

 16 D  1.55100000E+00  1.000000

 17 D  9.52000000E-02  1.000000

 18 F  4.23000000E-01  1.000000

 19 F  1.08900000E+00  1.000000

 20 F  2.17000000E-01  1.000000

 21 G  8.27000000E-01  1.000000

 22 G  3.78000000E-01  1.000000



 Summary of "ao basis" -> "ao basis" (cartesian)
 ------------------------------------------------------------------------------
       Tag                 Description            Shells   Functions and Types
 ---------------- ------------------------------  ------  ---------------------
 Na                       aug-cc-pvqz               22      109   7s6p4d3f2g
 Cl                       aug-cc-pvqz               22      109   7s6p4d3f2g




 Summary of "ao basis" -> "ao basis" (cartesian)
 ------------------------------------------------------------------------------
       Tag                 Description            Shells   Functions and Types
 ---------------- ------------------------------  ------  ---------------------
 Na                       aug-cc-pvqz               22      109   7s6p4d3f2g
 Cl                       aug-cc-pvqz               22      109   7s6p4d3f2g


      Symmetry analysis of basis
      --------------------------

        a1         70
        a2          4
        b1         22
        b2         22
        e         100

  Caching 1-el integrals 

            General Information
            -------------------
          SCF calculation type: DFT
          Wavefunction type:  closed shell.
          No. of atoms     :     2
          No. of electrons :    28
           Alpha electrons :    14
            Beta electrons :    14
          Charge           :     0
          Spin multiplicity:     1
          Use of symmetry is: on ; symmetry adaption is: on 
          Maximum number of iterations:  30
          AO basis - number of functions:   218
                     number of shells:    44
          Convergence on energy requested:  1.00D-06
          Convergence on density requested:  1.00D-05
          Convergence on gradient requested:  5.00D-04

              XC Information
              --------------
                         B3LYP Method XC Potential
                     Hartree-Fock (Exact) Exchange  0.200          
                        Slater Exchange Functional  0.800 local    
                    Becke 1988 Exchange Functional  0.720 non-local
              Lee-Yang-Parr Correlation Functional  0.810          
                  VWN I RPA Correlation Functional  0.190 local    

             Grid Information
             ----------------
          Grid used for XC integration:  medium    
          Radial quadrature: Mura-Knowles        
          Angular quadrature: Lebedev. 
          Tag              B.-S. Rad. Rad. Pts. Rad. Cut. Ang. Pts.
          ---              ---------- --------- --------- ---------
          Na                  1.80       88          21.0       434
          Cl                  1.00       88          14.0       590
          Grid pruning is: on 
          Number of quadrature shells:   176
          Spatial weights used:  Erf1

          Convergence Information
          -----------------------
          Convergence aids based upon iterative change in 
          total energy or number of iterations. 
          Levelshifting, if invoked, occurs when the 
          HOMO/LUMO gap drops below (HL_TOL):  1.00D-02
          DIIS, if invoked, will attempt to extrapolate 
          using up to (NFOCK): 10 stored Fock matrices.

                    Damping( 0%)  Levelshifting(0.5)       DIIS
                  --------------- ------------------- ---------------
          dE  on:    start            ASAP                start   
          dE off:    2 iters         30 iters            30 iters 


      Screening Tolerance Information
      -------------------------------
          Density screening/tol_rho:  1.00D-10
          AO Gaussian exp screening on grid/accAOfunc:  14
          CD Gaussian exp screening on grid/accCDfunc:  20
          XC Gaussian exp screening on grid/accXCfunc:  20
          Schwarz screening/accCoul:  1.00D-08


 WARNING : Found    10 linear dependencies 
 S eigenvalue threshold:     1.00000E-05
 Smallest S eigenvalue :     1.75958E-07
 Largest  S eigenvalue :     9.87779E-06


 !! The overlap matrix has  10 vectors deemed linearly dependent with
    eigenvalues:
 1.76D-07 4.93D-07 1.02D-06 1.44D-06 1.74D-06 2.75D-06 3.31D-06 3.31D-06
 5.64D-06 9.88D-06


      Superposition of Atomic Density Guess
      -------------------------------------

 Sum of atomic energies:        -621.34831753

      Non-variational initial energy
      ------------------------------

 Total energy =    -622.381824
 1-e energy   =   -1015.140763
 2-e energy   =     314.757218
 HOMO         =      -0.240169
 LUMO         =      -0.027221


      Symmetry analysis of molecular orbitals - initial
      -------------------------------------------------

  Numbering of irreducible representations: 

     1 a1          2 a2          3 b1          4 b2          5 e       

  Orbital symmetries:

     1 a1          2 a1          3 a1          4 a1          5 e       
     6 e           7 a1          8 a1          9 e          10 e       
    11 a1         12 e          13 e          14 a1         15 a1      
    16 e          17 e          18 a1         19 a1         20 e       
    21 e          22 a1         23 e          24 e       

   Time after variat. SCF:     33.7
   Time prior to 1st pass:     33.7

 Integral file          = ./nacl_aug-cc-pvqz.aoints.0
 Record size in doubles =  65536        No. of integs per rec  =  43688
 Max. records in memory =      0        Max. records in file   = 183503
 No. of bits per label  =      8        No. of bits per value  =     64


 #quartets = 4.905D+05 #integrals = 7.261D+07 #direct =  0.0% #cached =100.0%


 Grid_pts file          = ./nacl_aug-cc-pvqz.gridpts.0
 Record size in doubles =  12289        No. of grid_pts per rec  =   3070
 Max. records in memory =     39        Max. recs in file   =    970178

 Grid integrated density:      27.882122138488
 Requested integration accuracy:   0.10E-05

           Memory utilization after 1st SCF pass: 
           Heap Space remaining (MW):       12.62            12620172
          Stack Space remaining (MW):       13.11            13106076

   convergence    iter        energy       DeltaE   RMS-Dens  Diis-err    time
 ---------------- ----- ----------------- --------- --------- ---------  ------
 d= 0,ls=0.0,diis     1   -621.5071045608 -7.00D+02  5.91D-02  2.10D+00    69.1
 d= 0,ls=0.0,diis     2   -621.6463846812 -1.39D-01  2.12D-02  1.32D+00    71.0
 d= 0,ls=0.0,diis     3   -621.7811595111 -1.35D-01  1.18D-02  3.26D-01    73.0
 d= 0,ls=0.0,diis     4   -621.8211595848 -4.00D-02  5.86D-03  3.38D-02    75.0
 d= 0,ls=0.0,diis     5   -621.8240193909 -2.86D-03  1.71D-03  9.67D-04    77.3
  Resetting Diis
 d= 0,ls=0.0,diis     6   -621.8241277416 -1.08D-04  4.71D-04  9.16D-05    79.4
 d= 0,ls=0.0,diis     7   -621.8241386600 -1.09D-05  7.45D-05  1.08D-06    81.5
 d= 0,ls=0.0,diis     8   -621.8241385089  1.51D-07  2.74D-05  2.11D-06    83.6
 d= 0,ls=0.0,diis     9   -621.8241387809 -2.72D-07  3.07D-06  2.41D-07    85.7


         Total DFT energy =     -621.824138780943
      One electron energy =    -1016.137915778380
           Coulomb energy =      359.364240748969
    Exchange-Corr. energy =      -43.052185194461
 Nuclear repulsion energy =       78.001721442928

 Numeric. integr. density =       28.000006899563

     Total iterative time =     52.0s



                  Occupations of the irreducible representations
                  ----------------------------------------------

                     irrep           alpha         beta
                     --------     --------     --------
                     a1                8.0          8.0
                     a2                0.0          0.0
                     b1                0.0          0.0
                     b2                0.0          0.0
                     e                 6.0          6.0


                       DFT Final Molecular Orbital Analysis
                       ------------------------------------

 Vector    1  Occ=2.000000D+00  E=-1.015172D+02  Symmetry=a1
              MO Center= -1.6D-17,  1.9D-17,  5.0D-01, r^2= 3.1D-03
   Bfn.  Coefficient  Atom+Function         Bfn.  Coefficient  Atom+Function  
  ----- ------------  ---------------      ----- ------------  ---------------
   110      1.003995  2 Cl s                114     -0.045720  2 Cl s          
   131      0.037710  2 Cl pz         

 Vector    2  Occ=2.000000D+00  E=-3.858074D+01  Symmetry=a1
              MO Center=  8.8D-17,  4.1D-17, -7.7D-01, r^2= 7.7D-03
   Bfn.  Coefficient  Atom+Function         Bfn.  Coefficient  Atom+Function  
  ----- ------------  ---------------      ----- ------------  ---------------
     1      1.006553  1 Na s                  3      0.105349  1 Na s          
     2      0.075250  1 Na s                140      0.034771  2 Cl dzz        
     4      0.032665  1 Na s                 10      0.028190  1 Na pz         
    83      0.027670  1 Na gxxyy             13      0.027124  1 Na pz         

 Vector    3  Occ=2.000000D+00  E=-9.474499D+00  Symmetry=a1
              MO Center= -2.6D-16,  8.1D-16,  4.9D-01, r^2= 6.6D-02
   Bfn.  Coefficient  Atom+Function         Bfn.  Coefficient  Atom+Function  
  ----- ------------  ---------------      ----- ------------  ---------------
   111      0.900527  2 Cl s                131      0.244476  2 Cl pz         
   114     -0.162363  2 Cl s                 37     -0.143906  1 Na dzz        
   113      0.121133  2 Cl s                  4      0.105471  1 Na s          
     5      0.092242  1 Na s                 19     -0.078042  1 Na pz         
    16     -0.070675  1 Na pz               112     -0.070567  2 Cl s          

 Vector    4  Occ=2.000000D+00  E=-7.241405D+00  Symmetry=a1
              MO Center=  1.4D-15, -2.4D-15,  5.0D-01, r^2= 5.8D-02
   Bfn.  Coefficient  Atom+Function         Bfn.  Coefficient  Atom+Function  
  ----- ------------  ---------------      ----- ------------  ---------------
   119      1.211760  2 Cl pz               122      0.191525  2 Cl pz         
   125     -0.147756  2 Cl pz               128      0.113693  2 Cl pz         
    37      0.070552  1 Na dzz              178      0.054099  2 Cl fzzz       
    31     -0.051245  1 Na dzz              171      0.049715  2 Cl fxxz       
   176      0.049715  2 Cl fyyz             161     -0.037259  2 Cl fxxz       

 Vector    5  Occ=2.000000D+00  E=-7.220882D+00  Symmetry=e
              MO Center= -8.9D-16,  1.3D-15,  5.0D-01, r^2= 5.8D-02
   Bfn.  Coefficient  Atom+Function         Bfn.  Coefficient  Atom+Function  
  ----- ------------  ---------------      ----- ------------  ---------------
   118      1.014512  2 Cl py               117     -0.674354  2 Cl px         
   121      0.162539  2 Cl py               124     -0.133818  2 Cl py         
   120     -0.108041  2 Cl px               127      0.093695  2 Cl py         
   123      0.088950  2 Cl px               126     -0.062280  2 Cl px         
   177      0.048758  2 Cl fyzz             170      0.046006  2 Cl fxxy       

 Vector    6  Occ=2.000000D+00  E=-7.220882D+00  Symmetry=e
              MO Center= -1.2D-16, -6.3D-17,  5.0D-01, r^2= 5.8D-02
   Bfn.  Coefficient  Atom+Function         Bfn.  Coefficient  Atom+Function  
  ----- ------------  ---------------      ----- ------------  ---------------
   117      1.014512  2 Cl px               118      0.674354  2 Cl py         
   120      0.162539  2 Cl px               123     -0.133818  2 Cl px         
   121      0.108041  2 Cl py               126      0.093695  2 Cl px         
   124     -0.088950  2 Cl py               127      0.062280  2 Cl py         
   174      0.048758  2 Cl fxzz             169      0.046007  2 Cl fxxx       

 Vector    7  Occ=2.000000D+00  E=-2.456012D+00  Symmetry=a1
              MO Center= -7.6D-16,  2.8D-16, -6.9D-01, r^2= 2.2D-01
   Bfn.  Coefficient  Atom+Function         Bfn.  Coefficient  Atom+Function  
  ----- ------------  ---------------      ----- ------------  ---------------
     2      0.907523  1 Na s                 10      0.238143  1 Na pz         
   128     -0.191909  2 Cl pz               131     -0.144401  2 Cl pz         
    13      0.128969  1 Na pz               113      0.123785  2 Cl s          
   161      0.107949  2 Cl fxxz             166      0.107949  2 Cl fyyz       
   188      0.097428  2 Cl fzzz             168      0.096847  2 Cl fzzz       

 Vector    8  Occ=2.000000D+00  E=-1.459703D+00  Symmetry=a1
              MO Center= -1.1D-15, -3.6D-16, -7.5D-01, r^2= 3.0D-01
   Bfn.  Coefficient  Atom+Function         Bfn.  Coefficient  Atom+Function  
  ----- ------------  ---------------      ----- ------------  ---------------
    10      1.993136  1 Na pz                13      1.067784  1 Na pz         
   131     -0.347996  2 Cl pz               140     -0.274167  2 Cl dzz        
   128     -0.259537  2 Cl pz                69      0.235649  1 Na fzzz       
   113      0.192466  2 Cl s                 19     -0.189933  1 Na pz         
   112      0.188567  2 Cl s                115     -0.176871  2 Cl s          

 Vector    9  Occ=2.000000D+00  E=-1.327383D+00  Symmetry=e
              MO Center=  3.1D-15, -5.7D-16, -7.5D-01, r^2= 2.5D-01
   Bfn.  Coefficient  Atom+Function         Bfn.  Coefficient  Atom+Function  
  ----- ------------  ---------------      ----- ------------  ---------------
     8      1.466706  1 Na px                11      0.483213  1 Na px         
    14     -0.296993  1 Na px                 9     -0.293581  1 Na py         
    34     -0.261025  1 Na dxz               17     -0.185277  1 Na px         
   129      0.156932  2 Cl px                60      0.137824  1 Na fxxx       
    63      0.137835  1 Na fxyy             198     -0.114894  2 Cl gxzzz      

 Vector   10  Occ=2.000000D+00  E=-1.327383D+00  Symmetry=e
              MO Center= -3.9D-16, -1.4D-15, -7.5D-01, r^2= 2.5D-01
   Bfn.  Coefficient  Atom+Function         Bfn.  Coefficient  Atom+Function  
  ----- ------------  ---------------      ----- ------------  ---------------
     9      1.466706  1 Na py                12      0.483213  1 Na py         
    15     -0.296993  1 Na py                 8      0.293581  1 Na px         
    36     -0.261025  1 Na dyz               18     -0.185277  1 Na py         
   130      0.156932  2 Cl py                61      0.137835  1 Na fxxy       
    66      0.137824  1 Na fyyy             202     -0.114894  2 Cl gyzzz      

 Vector   11  Occ=2.000000D+00  E=-7.146385D-01  Symmetry=a1
              MO Center= -6.2D-16,  6.0D-15,  5.6D-01, r^2= 8.7D-01
   Bfn.  Coefficient  Atom+Function         Bfn.  Coefficient  Atom+Function  
  ----- ------------  ---------------      ----- ------------  ---------------
   112      0.640504  2 Cl s                131      0.528522  2 Cl pz         
   113      0.484044  2 Cl s                 31      0.336277  1 Na dzz        
     4      0.308949  1 Na s                 37     -0.305202  1 Na dzz        
     3      0.293935  1 Na s                128     -0.255737  2 Cl pz         
   115      0.245338  2 Cl s                 19     -0.224042  1 Na pz         

 Vector   12  Occ=2.000000D+00  E=-3.415355D-01  Symmetry=e
              MO Center= -1.3D-15, -2.7D-15,  4.1D-01, r^2= 1.2D+00
   Bfn.  Coefficient  Atom+Function         Bfn.  Coefficient  Atom+Function  
  ----- ------------  ---------------      ----- ------------  ---------------
   127      0.517540  2 Cl py               124      0.425009  2 Cl py         
    36      0.382892  1 Na dyz              126      0.263051  2 Cl px         
   130     -0.235234  2 Cl py                68      0.232706  1 Na fyzz       
   123      0.216019  2 Cl px               139      0.214161  2 Cl dyz        
   217     -0.204759  2 Cl gyzzz             34      0.194613  1 Na dxz        

 Vector   13  Occ=2.000000D+00  E=-3.415355D-01  Symmetry=e
              MO Center= -6.1D-16,  6.5D-16,  4.1D-01, r^2= 1.2D+00
   Bfn.  Coefficient  Atom+Function         Bfn.  Coefficient  Atom+Function  
  ----- ------------  ---------------      ----- ------------  ---------------
   126      0.517540  2 Cl px               123      0.425009  2 Cl px         
    34      0.382892  1 Na dxz              127     -0.263051  2 Cl py         
   129     -0.235234  2 Cl px                65      0.232706  1 Na fxzz       
   124     -0.216019  2 Cl py               137      0.214161  2 Cl dxz        
   213     -0.204759  2 Cl gxzzz             36     -0.194613  1 Na dyz        

 Vector   14  Occ=2.000000D+00  E=-1.882646D-01  Symmetry=a1
              MO Center= -8.7D-15,  2.7D-14,  2.1D-01, r^2= 2.5D+00
   Bfn.  Coefficient  Atom+Function         Bfn.  Coefficient  Atom+Function  
  ----- ------------  ---------------      ----- ------------  ---------------
     3      0.680608  1 Na s                128     -0.648496  2 Cl pz         
   131     -0.432227  2 Cl pz                13      0.410373  1 Na pz         
   125     -0.342187  2 Cl pz                16     -0.297513  1 Na pz         
     4      0.285366  1 Na s                 19      0.212310  1 Na pz         
    10      0.203226  1 Na pz               122     -0.133012  2 Cl pz         

 Vector   15  Occ=0.000000D+00  E=-4.784415D-02  Symmetry=a1
              MO Center= -2.3D-14,  1.8D-13, -1.6D+00, r^2= 8.3D+00
   Bfn.  Coefficient  Atom+Function         Bfn.  Coefficient  Atom+Function  
  ----- ------------  ---------------      ----- ------------  ---------------
   128      0.435509  2 Cl pz                13     -0.264552  1 Na pz         
   131     -0.196339  2 Cl pz                19     -0.170097  1 Na pz         
   125      0.132933  2 Cl pz               158      0.133137  2 Cl dzz        
   140      0.124856  2 Cl dzz              112     -0.122427  2 Cl s          
    49      0.117460  1 Na dzz               16     -0.114088  1 Na pz         

 Vector   16  Occ=0.000000D+00  E=-3.889727D-03  Symmetry=e
              MO Center=  1.5D-13,  1.0D-13, -1.7D+00, r^2= 2.5D+01
   Bfn.  Coefficient  Atom+Function         Bfn.  Coefficient  Atom+Function  
  ----- ------------  ---------------      ----- ------------  ---------------
    17      1.226265  1 Na px                18      0.917021  1 Na py         
    14     -0.875511  1 Na px               129      0.660574  2 Cl px         
    15     -0.654721  1 Na py                75     -0.588471  1 Na fxzz       
    34     -0.548557  1 Na dxz               23      0.521127  1 Na px         
   130      0.493988  2 Cl py                70     -0.458483  1 Na fxxx       

 Vector   17  Occ=0.000000D+00  E=-3.889727D-03  Symmetry=e
              MO Center=  9.4D-13, -1.3D-12, -1.7D+00, r^2= 2.5D+01
   Bfn.  Coefficient  Atom+Function         Bfn.  Coefficient  Atom+Function  
  ----- ------------  ---------------      ----- ------------  ---------------
    18      1.226265  1 Na py                17     -0.917021  1 Na px         
    15     -0.875511  1 Na py               130      0.660574  2 Cl py         
    14      0.654721  1 Na px                78     -0.588471  1 Na fyzz       
    36     -0.548557  1 Na dyz               24      0.521127  1 Na py         
   129     -0.493988  2 Cl px                71     -0.458489  1 Na fxxy       

 Vector   18  Occ=0.000000D+00  E= 3.734550D-03  Symmetry=a1
              MO Center=  7.1D-14, -6.3D-14, -2.0D+00, r^2= 4.4D+01
   Bfn.  Coefficient  Atom+Function         Bfn.  Coefficient  Atom+Function  
  ----- ------------  ---------------      ----- ------------  ---------------
    19      2.066508  1 Na pz                25      1.353740  1 Na pz         
   116     -0.937690  2 Cl s                 22     -0.880446  1 Na pz         
    72     -0.694523  1 Na fxxz              77     -0.694523  1 Na fyyz       
    79     -0.690991  1 Na fzzz              16     -0.612745  1 Na pz         
    37      0.500990  1 Na dzz              134      0.422921  2 Cl pz         

 Vector   19  Occ=0.000000D+00  E= 5.094074D-03  Symmetry=a1
              MO Center= -5.4D-13,  4.6D-13, -1.5D+00, r^2= 6.1D+01
   Bfn.  Coefficient  Atom+Function         Bfn.  Coefficient  Atom+Function  
  ----- ------------  ---------------      ----- ------------  ---------------
     7      1.532636  1 Na s                 19     -0.812366  1 Na pz         
    49     -0.430884  1 Na dzz               22      0.390265  1 Na pz         
   116      0.368639  2 Cl s                 16      0.365922  1 Na pz         
    25     -0.309199  1 Na pz               134      0.303663  2 Cl pz         
    72      0.289444  1 Na fxxz              77      0.289444  1 Na fyyz       

 Vector   20  Occ=0.000000D+00  E= 1.849696D-02  Symmetry=e
              MO Center= -2.4D-12, -4.2D-12, -8.1D-01, r^2= 7.4D+01
   Bfn.  Coefficient  Atom+Function         Bfn.  Coefficient  Atom+Function  
  ----- ------------  ---------------      ----- ------------  ---------------
    18     10.346080  1 Na py                15     -6.435504  1 Na py         
    17      5.879698  1 Na px                78     -4.122112  1 Na fyzz       
    71     -4.056130  1 Na fxxy              76     -4.056117  1 Na fyyy       
    21     -3.744913  1 Na py                14     -3.657310  1 Na px         
    24      2.709422  1 Na py                75     -2.342604  1 Na fxzz       

 Vector   21  Occ=0.000000D+00  E= 1.849696D-02  Symmetry=e
              MO Center=  6.2D-12, -3.5D-12, -8.1D-01, r^2= 7.4D+01
   Bfn.  Coefficient  Atom+Function         Bfn.  Coefficient  Atom+Function  
  ----- ------------  ---------------      ----- ------------  ---------------
    17     10.346080  1 Na px                14     -6.435504  1 Na px         
    18     -5.879698  1 Na py                75     -4.122112  1 Na fxzz       
    70     -4.056117  1 Na fxxx              73     -4.056130  1 Na fxyy       
    20     -3.744913  1 Na px                15      3.657310  1 Na py         
    23      2.709422  1 Na px                78      2.342604  1 Na fyzz       

 Vector   22  Occ=0.000000D+00  E= 2.442334D-02  Symmetry=a1
              MO Center= -2.9D-12, -6.7D-13,  1.8D+00, r^2= 5.9D+01
   Bfn.  Coefficient  Atom+Function         Bfn.  Coefficient  Atom+Function  
  ----- ------------  ---------------      ----- ------------  ---------------
    19      8.555948  1 Na pz               116     -4.588923  2 Cl s          
    22     -4.071133  1 Na pz                25      2.766717  1 Na pz         
    72     -2.696029  1 Na fxxz              77     -2.696029  1 Na fyyz       
    79     -2.416572  1 Na fzzz              16     -2.384828  1 Na pz         
    37      1.291063  1 Na dzz               69      1.117711  1 Na fzzz       

 Vector   23  Occ=0.000000D+00  E= 3.598368D-02  Symmetry=b2
              MO Center=  3.8D-14,  2.5D-14, -8.9D-01, r^2= 2.7D+01
   Bfn.  Coefficient  Atom+Function         Bfn.  Coefficient  Atom+Function  
  ----- ------------  ---------------      ----- ------------  ---------------
    39      3.175652  1 Na dxy               45     -2.466805  1 Na dxy        
    96     -2.372087  1 Na gxxxy            101     -2.372087  1 Na gxyyy      
   103     -2.270671  1 Na gxyzz             33      1.931086  1 Na dxy        
    27     -1.048614  1 Na dxy               81     -0.376354  1 Na gxxxy      
    86     -0.376354  1 Na gxyyy             88     -0.372443  1 Na gxyzz      

 Vector   24  Occ=0.000000D+00  E= 3.598452D-02  Symmetry=b1
              MO Center= -1.5D-14,  2.8D-14, -8.9D-01, r^2= 2.7D+01
   Bfn.  Coefficient  Atom+Function         Bfn.  Coefficient  Atom+Function  
  ----- ------------  ---------------      ----- ------------  ---------------
    38      1.587816  1 Na dxx               41     -1.587816  1 Na dyy        
    44     -1.233398  1 Na dxx               47      1.233398  1 Na dyy        
    95     -1.186038  1 Na gxxxx            105      1.186038  1 Na gyyyy      
   100     -1.135314  1 Na gxxzz            107      1.135314  1 Na gyyzz      
    32      0.965544  1 Na dxx               35     -0.965544  1 Na dyy        

 Vector   25  Occ=0.000000D+00  E= 3.973896D-02  Symmetry=a1
              MO Center=  2.1D-12, -2.5D-12, -1.5D+00, r^2= 4.6D+01
   Bfn.  Coefficient  Atom+Function         Bfn.  Coefficient  Atom+Function  
  ----- ------------  ---------------      ----- ------------  ---------------
    19      7.154588  1 Na pz                22     -3.888842  1 Na pz         
   116     -2.977431  2 Cl s                 72     -2.341319  1 Na fxxz       
    77     -2.341319  1 Na fyyz              98      2.220476  1 Na gxxyy      
    79     -2.187426  1 Na fzzz              16     -2.067428  1 Na pz         
    25      2.057875  1 Na pz                37      1.937093  1 Na dzz        

 Vector   26  Occ=0.000000D+00  E= 4.014183D-02  Symmetry=e
              MO Center=  1.6D-11, -2.2D-11, -2.1D-01, r^2= 3.3D+01
   Bfn.  Coefficient  Atom+Function         Bfn.  Coefficient  Atom+Function  
  ----- ------------  ---------------      ----- ------------  ---------------
    15      5.654349  1 Na py                18     -4.485570  1 Na py         
    14     -4.059262  1 Na px               130     -3.715463  2 Cl py         
    78      3.304037  1 Na fyzz              17      3.220195  1 Na px         
   133     -2.877553  2 Cl py               129      2.667335  2 Cl px         
    48      2.574171  1 Na dyz               71      2.433082  1 Na fxxy       

 Vector   27  Occ=0.000000D+00  E= 4.014183D-02  Symmetry=e
              MO Center= -3.5D-12, -2.6D-12, -2.1D-01, r^2= 3.3D+01
   Bfn.  Coefficient  Atom+Function         Bfn.  Coefficient  Atom+Function  
  ----- ------------  ---------------      ----- ------------  ---------------
    14      5.654349  1 Na px                17     -4.485570  1 Na px         
    15      4.059262  1 Na py               129     -3.715463  2 Cl px         
    75      3.304037  1 Na fxzz              18     -3.220195  1 Na py         
   132     -2.877553  2 Cl px               130     -2.667335  2 Cl py         
    46      2.574171  1 Na dxz               70      2.433056  1 Na fxxx       

 Vector   28  Occ=0.000000D+00  E= 4.257584D-02  Symmetry=a1
              MO Center= -1.4D-11,  3.0D-11, -2.1D+00, r^2= 4.4D+01
   Bfn.  Coefficient  Atom+Function         Bfn.  Coefficient  Atom+Function  
  ----- ------------  ---------------      ----- ------------  ---------------
    19      4.389694  1 Na pz               116     -2.662142  2 Cl s          
    49      2.602139  1 Na dzz              134     -2.062075  2 Cl pz         
   109      1.672943  1 Na gzzzz            100      1.634923  1 Na gxxzz      
   107      1.634923  1 Na gyyzz              5     -1.594663  1 Na s          
     7     -1.368947  1 Na s                 22     -1.144404  1 Na pz         

 Vector   29  Occ=0.000000D+00  E= 5.773737D-02  Symmetry=e
              MO Center= -2.0D-13, -1.5D-13, -1.7D+00, r^2= 5.3D+01
   Bfn.  Coefficient  Atom+Function         Bfn.  Coefficient  Atom+Function  
  ----- ------------  ---------------      ----- ------------  ---------------
    18     23.944422  1 Na py                17     18.825871  1 Na px         
    15    -12.937803  1 Na py                14    -10.172115  1 Na px         
    71     -8.579168  1 Na fxxy              76     -8.579137  1 Na fyyy       
    78     -8.189644  1 Na fyzz              70     -6.745192  1 Na fxxx       
    73     -6.745217  1 Na fxyy              21     -6.419401  1 Na py         

 Vector   30  Occ=0.000000D+00  E= 5.773737D-02  Symmetry=e
              MO Center=  5.0D-12, -3.9D-12, -1.7D+00, r^2= 5.3D+01
   Bfn.  Coefficient  Atom+Function         Bfn.  Coefficient  Atom+Function  
  ----- ------------  ---------------      ----- ------------  ---------------
    17     23.944422  1 Na px                18    -18.825871  1 Na py         
    14    -12.937803  1 Na px                15     10.172115  1 Na py         
    70     -8.579137  1 Na fxxx              73     -8.579168  1 Na fxyy       
    75     -8.189644  1 Na fxzz              71      6.745217  1 Na fxxy       
    76      6.745192  1 Na fyyy              20     -6.419401  1 Na px         

 Vector   31  Occ=0.000000D+00  E= 7.434858D-02  Symmetry=a1
              MO Center= -5.2D-12, -2.4D-12,  2.9D-01, r^2= 4.5D+01
   Bfn.  Coefficient  Atom+Function         Bfn.  Coefficient  Atom+Function  
  ----- ------------  ---------------      ----- ------------  ---------------
    19     22.914829  1 Na pz               116    -11.983269  2 Cl s          
    72     -7.030222  1 Na fxxz              77     -7.030222  1 Na fyyz       
    22     -6.887054  1 Na pz                79     -5.960075  1 Na fzzz       
    16     -5.748453  1 Na pz                37      3.193231  1 Na dzz        
    69      2.920204  1 Na fzzz              25      2.776049  1 Na pz         

 Vector   32  Occ=0.000000D+00  E= 1.019416D-01  Symmetry=b2
              MO Center= -1.4D-14, -1.9D-14, -6.4D-01, r^2= 2.1D+01
   Bfn.  Coefficient  Atom+Function         Bfn.  Coefficient  Atom+Function  
  ----- ------------  ---------------      ----- ------------  ---------------
    39      9.334741  1 Na dxy               96     -6.456454  1 Na gxxxy      
   101     -6.456454  1 Na gxyyy            103     -6.445519  1 Na gxyzz      
    33      5.861166  1 Na dxy               45     -2.830391  1 Na dxy        
    27     -2.501690  1 Na dxy               81     -1.326001  1 Na gxxxy      
    86     -1.326001  1 Na gxyyy             88     -1.182733  1 Na gxyzz      

 Vector   33  Occ=0.000000D+00  E= 1.019420D-01  Symmetry=b1
              MO Center=  1.1D-13, -1.5D-13, -6.4D-01, r^2= 2.1D+01
   Bfn.  Coefficient  Atom+Function         Bfn.  Coefficient  Atom+Function  
  ----- ------------  ---------------      ----- ------------  ---------------
    38      4.667362  1 Na dxx               41     -4.667362  1 Na dyy        
    95     -3.228228  1 Na gxxxx            100     -3.222764  1 Na gxxzz      
   105      3.228228  1 Na gyyyy            107      3.222764  1 Na gyyzz      
    32      2.930601  1 Na dxx               35     -2.930601  1 Na dyy        
    44     -1.415196  1 Na dxx               47      1.415196  1 Na dyy        

 Vector   34  Occ=0.000000D+00  E= 1.041302D-01  Symmetry=e
              MO Center= -7.1D-13, -3.3D-13,  1.5D+00, r^2= 2.4D+01
   Bfn.  Coefficient  Atom+Function         Bfn.  Coefficient  Atom+Function  
  ----- ------------  ---------------      ----- ------------  ---------------
    14     21.106266  1 Na px                15     14.831229  1 Na py         
    17    -14.184094  1 Na px               132    -12.641779  2 Cl px         
    75     11.940418  1 Na fxzz              34     11.701781  1 Na dxz        
    40     10.578867  1 Na dxz              129    -10.425390  2 Cl px         
    18     -9.967065  1 Na py                70      8.907165  1 Na fxxx       

 Vector   35  Occ=0.000000D+00  E= 1.041302D-01  Symmetry=e
              MO Center=  3.5D-11, -4.9D-11,  1.5D+00, r^2= 2.4D+01
   Bfn.  Coefficient  Atom+Function         Bfn.  Coefficient  Atom+Function  
  ----- ------------  ---------------      ----- ------------  ---------------
    15     21.106266  1 Na py                14    -14.831229  1 Na px         
    18    -14.184094  1 Na py               133    -12.641779  2 Cl py         
    78     11.940418  1 Na fyzz              36     11.701781  1 Na dyz        
    42     10.578867  1 Na dyz              130    -10.425390  2 Cl py         
    17      9.967065  1 Na px                71      8.907135  1 Na fxxy       

 Vector   36  Occ=0.000000D+00  E= 1.154008D-01  Symmetry=a1
              MO Center= -1.6D-11,  2.4D-11,  1.4D+00, r^2= 1.9D+01
   Bfn.  Coefficient  Atom+Function         Bfn.  Coefficient  Atom+Function  
  ----- ------------  ---------------      ----- ------------  ---------------
   134     10.370158  2 Cl pz                43     -7.525122  1 Na dzz        
   109      4.605847  1 Na gzzzz            100      4.309683  1 Na gxxzz      
   107      4.309683  1 Na gyyzz            131     -3.656157  2 Cl pz         
    19     -3.034928  1 Na pz                79     -2.099289  1 Na fzzz       
    38      2.037558  1 Na dxx               41      2.037558  1 Na dyy        

 Vector   37  Occ=0.000000D+00  E= 1.181720D-01  Symmetry=e
              MO Center=  2.3D-12, -7.5D-13, -2.0D-01, r^2= 2.6D+01
   Bfn.  Coefficient  Atom+Function         Bfn.  Coefficient  Atom+Function  
  ----- ------------  ---------------      ----- ------------  ---------------
    17     26.390581  1 Na px                14    -13.479536  1 Na px         
    40     10.987008  1 Na dxz               75    -10.201945  1 Na fxzz       
    70     -8.986042  1 Na fxxx              73     -8.985842  1 Na fxyy       
    18     -8.564694  1 Na py               129      7.997408  2 Cl px         
   104     -7.517451  1 Na gxzzz             97     -6.063451  1 Na gxxxz      

 Vector   38  Occ=0.000000D+00  E= 1.181720D-01  Symmetry=e
              MO Center=  1.7D-12,  5.3D-12, -2.0D-01, r^2= 2.6D+01
   Bfn.  Coefficient  Atom+Function         Bfn.  Coefficient  Atom+Function  
  ----- ------------  ---------------      ----- ------------  ---------------
    18     26.390581  1 Na py                15    -13.479536  1 Na py         
    42     10.987008  1 Na dyz               78    -10.201945  1 Na fyzz       
    71     -8.985842  1 Na fxxy              76     -8.986042  1 Na fyyy       
    17      8.564694  1 Na px               130      7.997408  2 Cl py         
   108     -7.517451  1 Na gyzzz             99     -6.064292  1 Na gxxyz      

 Vector   39  Occ=0.000000D+00  E= 1.199896D-01  Symmetry=a1
              MO Center= -3.3D-14,  2.7D-13, -6.7D-01, r^2= 3.2D+01
   Bfn.  Coefficient  Atom+Function         Bfn.  Coefficient  Atom+Function  
  ----- ------------  ---------------      ----- ------------  ---------------
    19     26.278828  1 Na pz               116    -11.413577  2 Cl s          
    72     -8.070074  1 Na fxxz              77     -8.070074  1 Na fyyz       
    79     -7.789160  1 Na fzzz              16     -7.455095  1 Na pz         
    43      6.771436  1 Na dzz               37      6.390408  1 Na dzz        
    22     -5.693505  1 Na pz                98      5.301722  1 Na gxxyy      

 Vector   40  Occ=0.000000D+00  E= 1.326291D-01  Symmetry=b2
              MO Center=  7.0D-16, -6.3D-15, -9.2D-01, r^2= 1.6D+01
   Bfn.  Coefficient  Atom+Function         Bfn.  Coefficient  Atom+Function  
  ----- ------------  ---------------      ----- ------------  ---------------
    74      5.194826  1 Na fxyz             136      3.510955  2 Cl dxy        
   103      2.825066  1 Na gxyzz             39     -1.924717  1 Na dxy        
   154     -1.823860  2 Cl dxy              212     -1.700876  2 Cl gxyzz      
   205     -1.691619  2 Cl gxxxy            210     -1.691619  2 Cl gxyyy      
    96      1.375683  1 Na gxxxy            101      1.375683  1 Na gxyyy      

 Vector   41  Occ=0.000000D+00  E= 1.326301D-01  Symmetry=b1
              MO Center= -6.1D-15,  6.2D-15, -9.2D-01, r^2= 1.6D+01
   Bfn.  Coefficient  Atom+Function         Bfn.  Coefficient  Atom+Function  
  ----- ------------  ---------------      ----- ------------  ---------------
    72      2.597405  1 Na fxxz              77     -2.597405  1 Na fyyz       
   135      1.755458  2 Cl dxx              138     -1.755458  2 Cl dyy        
   100      1.412534  1 Na gxxzz            107     -1.412534  1 Na gyyzz      
    38     -0.962391  1 Na dxx               41      0.962391  1 Na dyy        
   153     -0.911919  2 Cl dxx              156      0.911919  2 Cl dyy        

 Vector   42  Occ=0.000000D+00  E= 1.327705D-01  Symmetry=a1
              MO Center= -3.5D-11,  1.7D-11, -1.9D+00, r^2= 2.8D+01
   Bfn.  Coefficient  Atom+Function         Bfn.  Coefficient  Atom+Function  
  ----- ------------  ---------------      ----- ------------  ---------------
    19     10.456349  1 Na pz               134     -6.735783  2 Cl pz         
   116     -5.687219  2 Cl s                  5     -3.625097  1 Na s          
   100      3.600254  1 Na gxxzz            107      3.600254  1 Na gyyzz      
    49      3.539045  1 Na dzz              109      3.345710  1 Na gzzzz      
    72     -3.044371  1 Na fxxz              77     -3.044371  1 Na fyyz       

 Vector   43  Occ=0.000000D+00  E= 1.404630D-01  Symmetry=e
              MO Center=  3.0D-11, -5.2D-12, -2.0D+00, r^2= 3.2D+01
   Bfn.  Coefficient  Atom+Function         Bfn.  Coefficient  Atom+Function  
  ----- ------------  ---------------      ----- ------------  ---------------
    17     52.470457  1 Na px                14    -23.346539  1 Na px         
    70    -18.629562  1 Na fxxx              73    -18.626539  1 Na fxyy       
    75    -14.420127  1 Na fxzz              18     -8.981589  1 Na py         
   132     -8.742285  2 Cl px                20     -7.560025  1 Na px         
    34     -6.322292  1 Na dxz              137     -4.526641  2 Cl dxz        

 Vector   44  Occ=0.000000D+00  E= 1.404630D-01  Symmetry=e
              MO Center=  8.2D-13,  4.8D-12, -2.0D+00, r^2= 3.2D+01
   Bfn.  Coefficient  Atom+Function         Bfn.  Coefficient  Atom+Function  
  ----- ------------  ---------------      ----- ------------  ---------------
    18     52.470457  1 Na py                15    -23.346539  1 Na py         
    71    -18.626539  1 Na fxxy              76    -18.629562  1 Na fyyy       
    78    -14.420127  1 Na fyzz              17      8.981589  1 Na px         
   133     -8.742285  2 Cl py                21     -7.560025  1 Na py         
    36     -6.322292  1 Na dyz              139     -4.526641  2 Cl dyz        

 Vector   45  Occ=0.000000D+00  E= 1.418554D-01  Symmetry=e
              MO Center=  4.2D-15, -1.1D-14, -8.3D-01, r^2= 1.6D+01
   Bfn.  Coefficient  Atom+Function         Bfn.  Coefficient  Atom+Function  
  ----- ------------  ---------------      ----- ------------  ---------------
    71      2.470634  1 Na fxxy              73      1.424599  1 Na fxyy       
    61     -0.827628  1 Na fxxy              76     -0.816004  1 Na fyyy       
    63     -0.477221  1 Na fxyy              70     -0.470518  1 Na fxxx       
    51      0.315587  1 Na fxxy              66      0.257625  1 Na fyyy       
    99     -0.239649  1 Na gxxyz             53      0.181971  1 Na fxyy       

 Vector   46  Occ=0.000000D+00  E= 1.418554D-01  Symmetry=e
              MO Center= -2.8D-15, -4.8D-15, -8.3D-01, r^2= 1.6D+01
   Bfn.  Coefficient  Atom+Function         Bfn.  Coefficient  Atom+Function  
  ----- ------------  ---------------      ----- ------------  ---------------
    73      2.470634  1 Na fxyy              71     -1.424599  1 Na fxxy       
    63     -0.827628  1 Na fxyy              70     -0.816004  1 Na fxxx       
    61      0.477221  1 Na fxxy              76      0.470518  1 Na fyyy       
    53      0.315587  1 Na fxyy              60      0.257625  1 Na fxxx       
   102     -0.239649  1 Na gxyyz             51     -0.181971  1 Na fxxy       

 Vector   47  Occ=0.000000D+00  E= 1.789698D-01  Symmetry=a1
              MO Center= -9.0D-12, -2.8D-12, -8.6D-01, r^2= 2.9D+01
   Bfn.  Coefficient  Atom+Function         Bfn.  Coefficient  Atom+Function  
  ----- ------------  ---------------      ----- ------------  ---------------
    19     39.199614  1 Na pz               116    -20.801957  2 Cl s          
    72    -13.745680  1 Na fxxz              77    -13.745680  1 Na fyyz       
    79     -9.812050  1 Na fzzz              16     -9.713902  1 Na pz         
     5      6.471754  1 Na s                 43      6.470570  1 Na dzz        
    37      6.189042  1 Na dzz               22     -5.806869  1 Na pz         

 Vector   48  Occ=0.000000D+00  E= 2.048280D-01  Symmetry=e
              MO Center= -2.7D-12, -6.7D-14,  8.6D-01, r^2= 2.0D+01
   Bfn.  Coefficient  Atom+Function         Bfn.  Coefficient  Atom+Function  
  ----- ------------  ---------------      ----- ------------  ---------------
    14     35.373981  1 Na px                40     27.497286  1 Na dxz        
    75     25.989021  1 Na fxzz             132    -23.466174  2 Cl px         
    17    -21.691183  1 Na px                34     21.530428  1 Na dxz        
   129    -17.930966  2 Cl px                70     14.728941  1 Na fxxx       
    73     14.729856  1 Na fxyy              97    -13.656157  1 Na gxxxz      

 Vector   49  Occ=0.000000D+00  E= 2.048280D-01  Symmetry=e
              MO Center= -1.1D-13,  4.6D-12,  8.6D-01, r^2= 2.0D+01
   Bfn.  Coefficient  Atom+Function         Bfn.  Coefficient  Atom+Function  
  ----- ------------  ---------------      ----- ------------  ---------------
    15     35.373981  1 Na py                42     27.497286  1 Na dyz        
    78     25.989021  1 Na fyzz             133    -23.466174  2 Cl py         
    18    -21.691183  1 Na py                36     21.530428  1 Na dyz        
   130    -17.930966  2 Cl py                71     14.729856  1 Na fxxy       
    76     14.728941  1 Na fyyy              99    -13.653069  1 Na gxxyz      

 Vector   50  Occ=0.000000D+00  E= 2.054734D-01  Symmetry=a1
              MO Center=  3.3D-12, -6.2D-12,  1.5D-01, r^2= 2.0D+01
   Bfn.  Coefficient  Atom+Function         Bfn.  Coefficient  Atom+Function  
  ----- ------------  ---------------      ----- ------------  ---------------
    43     16.731703  1 Na dzz              134    -16.356113  2 Cl pz         
   109    -10.378803  1 Na gzzzz             79      9.413830  1 Na fzzz       
    31     -8.822673  1 Na dzz              100     -7.515054  1 Na gxxzz      
   107     -7.515054  1 Na gyyzz            116      7.401666  2 Cl s          
    38     -6.967793  1 Na dxx               41     -6.967793  1 Na dyy        

 Vector   51  Occ=0.000000D+00  E= 2.276934D-01  Symmetry=b2
              MO Center=  1.5D-15, -8.0D-15, -2.2D-01, r^2= 1.6D+01
   Bfn.  Coefficient  Atom+Function         Bfn.  Coefficient  Atom+Function  
  ----- ------------  ---------------      ----- ------------  ---------------
    39     13.353486  1 Na dxy               96    -10.314342  1 Na gxxxy      
   101    -10.314342  1 Na gxyyy            103    -10.153500  1 Na gxyzz      
    33      7.947810  1 Na dxy               27     -4.548077  1 Na dxy        
    45     -2.359090  1 Na dxy               74      1.569490  1 Na fxyz       
    81     -1.553330  1 Na gxxxy             86     -1.553330  1 Na gxyyy      

 Vector   52  Occ=0.000000D+00  E= 2.276939D-01  Symmetry=b1
              MO Center= -3.0D-15, -6.1D-16, -2.2D-01, r^2= 1.6D+01
   Bfn.  Coefficient  Atom+Function         Bfn.  Coefficient  Atom+Function  
  ----- ------------  ---------------      ----- ------------  ---------------
    38      6.676759  1 Na dxx               41     -6.676759  1 Na dyy        
    95     -5.157193  1 Na gxxxx            105      5.157193  1 Na gyyyy      
   100     -5.076776  1 Na gxxzz            107      5.076776  1 Na gyyzz      
    32      3.973939  1 Na dxx               35     -3.973939  1 Na dyy        
    26     -2.274076  1 Na dxx               29      2.274076  1 Na dyy        

 Vector   53  Occ=0.000000D+00  E= 2.384051D-01  Symmetry=e
              MO Center=  3.6D-13, -1.0D-11, -8.2D-01, r^2= 2.2D+01
   Bfn.  Coefficient  Atom+Function         Bfn.  Coefficient  Atom+Function  
  ----- ------------  ---------------      ----- ------------  ---------------
    18     58.235648  1 Na py                15    -24.919789  1 Na py         
    71    -23.479332  1 Na fxxy              76    -23.478420  1 Na fyyy       
    78    -19.074495  1 Na fyzz              42     12.386516  1 Na dyz        
    21     -6.244416  1 Na py               133     -6.193757  2 Cl py         
   108     -6.045730  1 Na gyzzz             99     -5.077790  1 Na gxxyz      

 Vector   54  Occ=0.000000D+00  E= 2.384051D-01  Symmetry=e
              MO Center=  6.4D-12,  2.3D-13, -8.2D-01, r^2= 2.2D+01
   Bfn.  Coefficient  Atom+Function         Bfn.  Coefficient  Atom+Function  
  ----- ------------  ---------------      ----- ------------  ---------------
    17     58.235648  1 Na px                14    -24.919789  1 Na px         
    70    -23.478420  1 Na fxxx              73    -23.479332  1 Na fxyy       
    75    -19.074495  1 Na fxzz              40     12.386516  1 Na dxz        
    20     -6.244416  1 Na px               132     -6.193757  2 Cl px         
   104     -6.045730  1 Na gxzzz             97     -5.074091  1 Na gxxxz      

 Vector   55  Occ=0.000000D+00  E= 2.653981D-01  Symmetry=a1
              MO Center=  3.6D-12, -3.7D-12, -7.6D-01, r^2= 2.4D+01
   Bfn.  Coefficient  Atom+Function         Bfn.  Coefficient  Atom+Function  
  ----- ------------  ---------------      ----- ------------  ---------------
    19     45.582459  1 Na pz               116    -21.168184  2 Cl s          
    72    -17.050411  1 Na fxxz              77    -17.050411  1 Na fyyz       
    79    -15.936075  1 Na fzzz              16    -12.326788  1 Na pz         
    37     11.576586  1 Na dzz               43     10.047239  1 Na dzz        
    98      8.548010  1 Na gxxyy             22     -6.070068  1 Na pz         

 Vector   56  Occ=0.000000D+00  E= 2.751921D-01  Symmetry=e
              MO Center=  1.9D-12, -9.6D-13, -9.2D-01, r^2= 1.4D+01
   Bfn.  Coefficient  Atom+Function         Bfn.  Coefficient  Atom+Function  
  ----- ------------  ---------------      ----- ------------  ---------------
    17     19.531672  1 Na px               104    -11.842388  1 Na gxzzz      
    40     10.685753  1 Na dxz               18     -9.754893  1 Na py         
    75     -9.799498  1 Na fxzz              97     -9.636576  1 Na gxxxz      
   102     -9.639830  1 Na gxyyz            129      9.273788  2 Cl px         
    14     -8.337855  1 Na px                70     -7.632591  1 Na fxxx       

 Vector   57  Occ=0.000000D+00  E= 2.751921D-01  Symmetry=e
              MO Center= -4.1D-13, -8.3D-13, -9.2D-01, r^2= 1.4D+01
   Bfn.  Coefficient  Atom+Function         Bfn.  Coefficient  Atom+Function  
  ----- ------------  ---------------      ----- ------------  ---------------
    18     19.531672  1 Na py               108    -11.842388  1 Na gyzzz      
    42     10.685753  1 Na dyz               17      9.754893  1 Na px         
    78     -9.799498  1 Na fyzz              99     -9.639830  1 Na gxxyz      
   106     -9.636576  1 Na gyyyz            130      9.273788  2 Cl py         
    15     -8.337855  1 Na py                71     -7.633267  1 Na fxxy       

 Vector   58  Occ=0.000000D+00  E= 2.967706D-01  Symmetry=a1
              MO Center= -5.0D-12,  2.5D-12, -9.8D-01, r^2= 1.6D+01
   Bfn.  Coefficient  Atom+Function         Bfn.  Coefficient  Atom+Function  
  ----- ------------  ---------------      ----- ------------  ---------------
   100     10.195428  1 Na gxxzz            107     10.195428  1 Na gyyzz      
   109     10.051785  1 Na gzzzz              5     -7.522884  1 Na s          
   131     -6.888095  2 Cl pz                43     -6.477754  1 Na dzz        
     6     -5.486541  1 Na s                 37     -5.459503  1 Na dzz        
    98      3.559933  1 Na gxxyy             85      3.482185  1 Na gxxzz      

 Vector   59  Occ=0.000000D+00  E= 3.066952D-01  Symmetry=b2
              MO Center= -2.4D-15, -7.0D-16, -5.0D-01, r^2= 1.1D+01
   Bfn.  Coefficient  Atom+Function         Bfn.  Coefficient  Atom+Function  
  ----- ------------  ---------------      ----- ------------  ---------------
   103      8.645011  1 Na gxyzz             96      7.725672  1 Na gxxxy      
   101      7.725672  1 Na gxyyy             39     -7.516027  1 Na dxy        
   136      6.764230  2 Cl dxy              154     -5.592465  2 Cl dxy        
    74      3.754660  1 Na fxyz             205     -3.594352  2 Cl gxxxy      
   210     -3.594352  2 Cl gxyyy            212     -3.604358  2 Cl gxyzz      

 Vector   60  Occ=0.000000D+00  E= 3.066955D-01  Symmetry=b1
              MO Center= -2.5D-16, -1.1D-15, -5.0D-01, r^2= 1.1D+01
   Bfn.  Coefficient  Atom+Function         Bfn.  Coefficient  Atom+Function  
  ----- ------------  ---------------      ----- ------------  ---------------
   100      4.322537  1 Na gxxzz            107     -4.322537  1 Na gyyzz      
    95      3.862867  1 Na gxxxx            105     -3.862867  1 Na gyyyy      
    38     -3.758042  1 Na dxx               41      3.758042  1 Na dyy        
   135      3.382150  2 Cl dxx              138     -3.382150  2 Cl dyy        
   153     -2.796216  2 Cl dxx              156      2.796216  2 Cl dyy        

 Vector   61  Occ=0.000000D+00  E= 3.250251D-01  Symmetry=e
              MO Center=  1.6D-11, -2.1D-11, -2.9D-01, r^2= 2.0D+01
   Bfn.  Coefficient  Atom+Function         Bfn.  Coefficient  Atom+Function  
  ----- ------------  ---------------      ----- ------------  ---------------
    18     42.146852  1 Na py                17    -32.654301  1 Na px         
    71    -18.268779  1 Na fxxy              76    -18.267660  1 Na fyyy       
    78    -17.691819  1 Na fyzz              70     14.153315  1 Na fxxx       
    73     14.154182  1 Na fxyy              75     13.707168  1 Na fxzz       
    15    -12.038444  1 Na py               108      9.515266  1 Na gyzzz      

 Vector   62  Occ=0.000000D+00  E= 3.250251D-01  Symmetry=e
              MO Center=  1.0D-11,  7.9D-12, -2.9D-01, r^2= 2.0D+01
   Bfn.  Coefficient  Atom+Function         Bfn.  Coefficient  Atom+Function  
  ----- ------------  ---------------      ----- ------------  ---------------
    17     42.146852  1 Na px                18     32.654301  1 Na py         
    70    -18.267660  1 Na fxxx              73    -18.268779  1 Na fxyy       
    75    -17.691819  1 Na fxzz              71    -14.154182  1 Na fxxy       
    76    -14.153315  1 Na fyyy              78    -13.707168  1 Na fyzz       
    14    -12.038444  1 Na px               104      9.515266  1 Na gxzzz      

 Vector   63  Occ=0.000000D+00  E= 3.476988D-01  Symmetry=a1
              MO Center= -5.0D-12,  1.6D-11,  9.7D-01, r^2= 1.4D+01
   Bfn.  Coefficient  Atom+Function         Bfn.  Coefficient  Atom+Function  
  ----- ------------  ---------------      ----- ------------  ---------------
     5      7.721217  1 Na s                100     -6.728334  1 Na gxxzz      
   107     -6.728334  1 Na gyyzz            158     -5.987136  2 Cl dzz        
   109     -5.496250  1 Na gzzzz             31     -5.428785  1 Na dzz        
     4      5.238877  1 Na s                  6      4.570168  1 Na s          
    37      4.582342  1 Na dzz              134      4.421645  2 Cl pz         

 Vector   64  Occ=0.000000D+00  E= 3.589931D-01  Symmetry=b2
              MO Center=  1.4D-15, -6.7D-15, -1.6D+00, r^2= 9.9D+00
   Bfn.  Coefficient  Atom+Function         Bfn.  Coefficient  Atom+Function  
  ----- ------------  ---------------      ----- ------------  ---------------
   103     13.859093  1 Na gxyzz            154     -3.774593  2 Cl dxy        
    88     -3.441136  1 Na gxyzz            136      3.147331  2 Cl dxy        
    74      2.669825  1 Na fxyz              54     -2.458166  1 Na fxyz       
    39     -2.095774  1 Na dxy               64      1.568129  1 Na fxyz       
   183     -1.483819  2 Cl fxyz              81      1.439323  1 Na gxxxy      

 Vector   65  Occ=0.000000D+00  E= 3.589934D-01  Symmetry=b1
              MO Center= -4.4D-14, -1.6D-14, -1.6D+00, r^2= 9.9D+00
   Bfn.  Coefficient  Atom+Function         Bfn.  Coefficient  Atom+Function  
  ----- ------------  ---------------      ----- ------------  ---------------
   100      6.929525  1 Na gxxzz            107     -6.929525  1 Na gyyzz      
   153     -1.887288  2 Cl dxx              156      1.887288  2 Cl dyy        
    85     -1.720581  1 Na gxxzz             92      1.720581  1 Na gyyzz      
   135      1.573708  2 Cl dxx              138     -1.573708  2 Cl dyy        
    72      1.334915  1 Na fxxz              77     -1.334915  1 Na fyyz       

 Vector   66  Occ=0.000000D+00  E= 3.612043D-01  Symmetry=e
              MO Center=  1.7D-14, -1.4D-14, -6.9D-01, r^2= 1.0D+01
   Bfn.  Coefficient  Atom+Function         Bfn.  Coefficient  Atom+Function  
  ----- ------------  ---------------      ----- ------------  ---------------
   102      5.777553  1 Na gxyyz             99      4.989946  1 Na gxxyz      
    97     -1.937831  1 Na gxxxz            106     -1.673662  1 Na gyyyz      
    87     -1.573768  1 Na gxyyz             84     -1.359229  1 Na gxxyz      
    82      0.557398  1 Na gxxxz             91      0.481413  1 Na gyyyz      
    63      0.353524  1 Na fxyy              61      0.305331  1 Na fxxy       

 Vector   67  Occ=0.000000D+00  E= 3.612043D-01  Symmetry=e
              MO Center=  2.3D-14,  3.3D-14, -6.9D-01, r^2= 1.0D+01
   Bfn.  Coefficient  Atom+Function         Bfn.  Coefficient  Atom+Function  
  ----- ------------  ---------------      ----- ------------  ---------------
    99      5.777553  1 Na gxxyz            102     -4.989946  1 Na gxyyz      
   106     -1.937831  1 Na gyyyz             97      1.673662  1 Na gxxxz      
    84     -1.573768  1 Na gxxyz             87      1.359229  1 Na gxyyz      
    91      0.557398  1 Na gyyyz             82     -0.481413  1 Na gxxxz      
    61      0.353524  1 Na fxxy              63     -0.305331  1 Na fxyy       

 Vector   68  Occ=0.000000D+00  E= 3.688852D-01  Symmetry=a2
              MO Center= -2.7D-15,  2.4D-15, -7.6D-01, r^2= 1.0D+01
   Bfn.  Coefficient  Atom+Function         Bfn.  Coefficient  Atom+Function  
  ----- ------------  ---------------      ----- ------------  ---------------
    96      3.537791  1 Na gxxxy            101     -3.537791  1 Na gxyyy      
    81     -0.895238  1 Na gxxxy             86      0.895238  1 Na gxyyy      
   205      0.061010  2 Cl gxxxy            210     -0.061010  2 Cl gxyyy      

 Vector   69  Occ=0.000000D+00  E= 3.688862D-01  Symmetry=a1
              MO Center= -3.5D-15,  2.2D-16, -7.6D-01, r^2= 1.0D+01
   Bfn.  Coefficient  Atom+Function         Bfn.  Coefficient  Atom+Function  
  ----- ------------  ---------------      ----- ------------  ---------------
    98      5.217690  1 Na gxxyy             83     -1.345777  1 Na gxxyy      
    95     -0.928898  1 Na gxxxx            105     -0.928898  1 Na gyyyy      
     5     -0.337439  1 Na s                116      0.334226  2 Cl s          
     6     -0.317868  1 Na s                 80      0.222332  1 Na gxxxx      
    90      0.222332  1 Na gyyyy             38      0.148321  1 Na dxx        

 Vector   70  Occ=0.000000D+00  E= 3.787846D-01  Symmetry=a1
              MO Center= -1.1D-11,  2.9D-12, -8.6D-01, r^2= 1.8D+01
   Bfn.  Coefficient  Atom+Function         Bfn.  Coefficient  Atom+Function  
  ----- ------------  ---------------      ----- ------------  ---------------
    19     36.627712  1 Na pz               116    -22.778913  2 Cl s          
    72    -14.649961  1 Na fxxz              77    -14.649961  1 Na fyyz       
    79    -12.271823  1 Na fzzz              98    -10.860358  1 Na gxxyy      
    16     -9.241034  1 Na pz                32      7.525138  1 Na dxx        
    35      7.525138  1 Na dyy              115     -5.478585  2 Cl s          

 Vector   71  Occ=0.000000D+00  E= 4.105589D-01  Symmetry=e
              MO Center= -1.4D-16, -1.4D-15, -8.2D-01, r^2= 8.7D+00
   Bfn.  Coefficient  Atom+Function         Bfn.  Coefficient  Atom+Function  
  ----- ------------  ---------------      ----- ------------  ---------------
    63      3.125050  1 Na fxyy              61      2.672920  1 Na fxxy       
    73     -1.703840  1 Na fxyy              71     -1.457329  1 Na fxxy       
    60     -1.147370  1 Na fxxx              66     -0.981369  1 Na fyyy       
    53     -0.792413  1 Na fxyy              51     -0.677767  1 Na fxxy       
    70      0.484499  1 Na fxxx              76      0.414402  1 Na fyyy       

 Vector   72  Occ=0.000000D+00  E= 4.105589D-01  Symmetry=e
              MO Center=  3.1D-15,  2.5D-15, -8.2D-01, r^2= 8.7D+00
   Bfn.  Coefficient  Atom+Function         Bfn.  Coefficient  Atom+Function  
  ----- ------------  ---------------      ----- ------------  ---------------
    61      3.125050  1 Na fxxy              63     -2.672920  1 Na fxyy       
    71     -1.703840  1 Na fxxy              73      1.457329  1 Na fxyy       
    66     -1.147370  1 Na fyyy              60      0.981369  1 Na fxxx       
    51     -0.792413  1 Na fxxy              53      0.677767  1 Na fxyy       
    76      0.484499  1 Na fyyy              70     -0.414402  1 Na fxxx       

 Vector   73  Occ=0.000000D+00  E= 4.226173D-01  Symmetry=e
              MO Center=  1.5D-12, -5.5D-12, -8.5D-01, r^2= 1.3D+01
   Bfn.  Coefficient  Atom+Function         Bfn.  Coefficient  Atom+Function  
  ----- ------------  ---------------      ----- ------------  ---------------
    15     23.565726  1 Na py                36     22.900107  1 Na dyz        
    42     22.305192  1 Na dyz              130    -21.343069  2 Cl py         
   133    -16.555816  2 Cl py                99    -16.453249  1 Na gxxyz      
   106    -16.445177  1 Na gyyyz             78     15.127817  1 Na fyzz       
    68      9.497533  1 Na fyzz             139      8.960808  2 Cl dyz        

 Vector   74  Occ=0.000000D+00  E= 4.226173D-01  Symmetry=e
              MO Center= -6.3D-13, -1.7D-13, -8.5D-01, r^2= 1.3D+01
   Bfn.  Coefficient  Atom+Function         Bfn.  Coefficient  Atom+Function  
  ----- ------------  ---------------      ----- ------------  ---------------
    14     23.565726  1 Na px                34     22.900107  1 Na dxz        
    40     22.305192  1 Na dxz              129    -21.343069  2 Cl px         
   132    -16.555816  2 Cl px                97    -16.445177  1 Na gxxxz      
   102    -16.453249  1 Na gxyyz             75     15.127817  1 Na fxzz       
    65      9.497533  1 Na fxzz             137      8.960808  2 Cl dxz        

 Vector   75  Occ=0.000000D+00  E= 4.414728D-01  Symmetry=a1
              MO Center= -6.4D-12,  1.2D-11, -1.1D+00, r^2= 1.3D+01
   Bfn.  Coefficient  Atom+Function         Bfn.  Coefficient  Atom+Function  
  ----- ------------  ---------------      ----- ------------  ---------------
   100    -11.205251  1 Na gxxzz            107    -11.205251  1 Na gyyzz      
    43     11.013007  1 Na dzz              134    -10.510308  2 Cl pz         
    79      9.561942  1 Na fzzz             116      8.817513  2 Cl s          
   158     -7.521666  2 Cl dzz               31     -6.119191  1 Na dzz        
    19     -6.030396  1 Na pz                38     -5.226272  1 Na dxx        

 Vector   76  Occ=0.000000D+00  E= 4.456895D-01  Symmetry=b2
              MO Center=  1.4D-15, -1.5D-16,  7.6D-02, r^2= 1.2D+01
   Bfn.  Coefficient  Atom+Function         Bfn.  Coefficient  Atom+Function  
  ----- ------------  ---------------      ----- ------------  ---------------
    33     25.183231  1 Na dxy               96    -18.994812  1 Na gxxxy      
   101    -18.994812  1 Na gxyyy             39     15.491909  1 Na dxy        
   103    -13.016084  1 Na gxyzz             27     -7.573410  1 Na dxy        
   154     -6.526988  2 Cl dxy               64      4.366611  1 Na fxyz       
    81     -4.022700  1 Na gxxxy             86     -4.022700  1 Na gxyyy      

 Vector   77  Occ=0.000000D+00  E= 4.456897D-01  Symmetry=b1
              MO Center=  9.7D-16,  2.0D-16,  7.6D-02, r^2= 1.2D+01
   Bfn.  Coefficient  Atom+Function         Bfn.  Coefficient  Atom+Function  
  ----- ------------  ---------------      ----- ------------  ---------------
    32     12.591675  1 Na dxx               35    -12.591675  1 Na dyy        
    95     -9.497444  1 Na gxxxx            105      9.497444  1 Na gyyyy      
    38      7.745976  1 Na dxx               41     -7.745976  1 Na dyy        
   100     -6.508104  1 Na gxxzz            107      6.508104  1 Na gyyzz      
    26     -3.786686  1 Na dxx               29      3.786686  1 Na dyy        

 Vector   78  Occ=0.000000D+00  E= 4.714194D-01  Symmetry=e
              MO Center=  1.4D-12, -5.1D-13,  3.6D-01, r^2= 9.7D+00
   Bfn.  Coefficient  Atom+Function         Bfn.  Coefficient  Atom+Function  
  ----- ------------  ---------------      ----- ------------  ---------------
   129     18.321813  2 Cl px                17    -16.361938  1 Na px         
    65    -14.746798  1 Na fxzz              34    -11.128875  1 Na dxz        
   137     -9.254907  2 Cl dxz               70      8.233602  1 Na fxxx       
    73      8.232043  1 Na fxyy             104     -7.593946  1 Na gxzzz      
   130     -6.705018  2 Cl py                18      5.987786  1 Na py         

 Vector   79  Occ=0.000000D+00  E= 4.714194D-01  Symmetry=e
              MO Center= -1.1D-13, -3.2D-13,  3.6D-01, r^2= 9.7D+00
   Bfn.  Coefficient  Atom+Function         Bfn.  Coefficient  Atom+Function  
  ----- ------------  ---------------      ----- ------------  ---------------
   130     18.321813  2 Cl py                18    -16.361938  1 Na py         
    68    -14.746798  1 Na fyzz              36    -11.128875  1 Na dyz        
   139     -9.254907  2 Cl dyz               71      8.232043  1 Na fxxy       
    76      8.233602  1 Na fyyy             108     -7.593946  1 Na gyzzz      
   129      6.705018  2 Cl px                17     -5.987786  1 Na px         

 Vector   80  Occ=0.000000D+00  E= 4.741974D-01  Symmetry=e
              MO Center=  4.1D-13, -3.7D-13, -1.1D+00, r^2= 1.5D+01
   Bfn.  Coefficient  Atom+Function         Bfn.  Coefficient  Atom+Function  
  ----- ------------  ---------------      ----- ------------  ---------------
    17     39.497107  1 Na px                18    -35.951350  1 Na py         
    34     29.856195  1 Na dxz               36    -27.175928  1 Na dyz        
    70    -16.699123  1 Na fxxx              73    -16.697254  1 Na fxyy       
    97    -16.243939  1 Na gxxxz            102    -16.241524  1 Na gxyyz      
   104    -16.078494  1 Na gxzzz             71     15.198298  1 Na fxxy       

 Vector   81  Occ=0.000000D+00  E= 4.741974D-01  Symmetry=e
              MO Center=  1.0D-11,  1.1D-11, -1.1D+00, r^2= 1.5D+01
   Bfn.  Coefficient  Atom+Function         Bfn.  Coefficient  Atom+Function  
  ----- ------------  ---------------      ----- ------------  ---------------
    18     39.497107  1 Na py                17     35.951350  1 Na px         
    36     29.856195  1 Na dyz               34     27.175928  1 Na dxz        
    71    -16.697254  1 Na fxxy              76    -16.699123  1 Na fyyy       
    99    -16.241524  1 Na gxxyz            106    -16.243939  1 Na gyyyz      
   108    -16.078494  1 Na gyzzz             70    -15.200000  1 Na fxxx       

 Vector   82  Occ=0.000000D+00  E= 4.869086D-01  Symmetry=a1
              MO Center= -1.5D-12, -7.7D-13, -1.1D+00, r^2= 1.6D+01
   Bfn.  Coefficient  Atom+Function         Bfn.  Coefficient  Atom+Function  
  ----- ------------  ---------------      ----- ------------  ---------------
    19     49.278775  1 Na pz                37     24.437371  1 Na dzz        
    72    -20.420642  1 Na fxxz              77    -20.420642  1 Na fyyz       
    79    -18.005565  1 Na fzzz             116    -17.827308  2 Cl s          
   109    -15.864451  1 Na gzzzz             43     14.254949  1 Na dzz        
    98     11.957809  1 Na gxxyy             16    -11.752794  1 Na pz         

 Vector   83  Occ=0.000000D+00  E= 5.020567D-01  Symmetry=a1
              MO Center=  8.2D-14, -2.2D-13, -1.3D-01, r^2= 1.2D+01
   Bfn.  Coefficient  Atom+Function         Bfn.  Coefficient  Atom+Function  
  ----- ------------  ---------------      ----- ------------  ---------------
    19     21.250588  1 Na pz               116    -15.831744  2 Cl s          
    16    -13.350026  1 Na pz                79    -12.034183  1 Na fzzz       
    31     11.455189  1 Na dzz               72     -9.060628  1 Na fxxz       
    77     -9.060628  1 Na fyyz             109      8.734969  1 Na gzzzz      
    69      8.398678  1 Na fzzz              52      7.923236  1 Na fxxz       

 Vector   84  Occ=0.000000D+00  E= 5.134704D-01  Symmetry=b2
              MO Center= -7.0D-15,  6.6D-16, -3.2D-01, r^2= 1.0D+01
   Bfn.  Coefficient  Atom+Function         Bfn.  Coefficient  Atom+Function  
  ----- ------------  ---------------      ----- ------------  ---------------
   103     25.168135  1 Na gxyzz             64     19.074058  1 Na fxyz       
   154    -14.600541  2 Cl dxy               96      7.984212  1 Na gxxxy      
   101      7.984212  1 Na gxyyy             39     -6.665200  1 Na dxy        
    27      4.476180  1 Na dxy               33     -2.949482  1 Na dxy        
    54     -2.618236  1 Na fxyz              81      2.612088  1 Na gxxxy      

 Vector   85  Occ=0.000000D+00  E= 5.134706D-01  Symmetry=b1
              MO Center= -4.5D-15, -3.4D-16, -3.2D-01, r^2= 1.0D+01
   Bfn.  Coefficient  Atom+Function         Bfn.  Coefficient  Atom+Function  
  ----- ------------  ---------------      ----- ------------  ---------------
   100     12.584049  1 Na gxxzz            107    -12.584049  1 Na gyyzz      
    62      9.537039  1 Na fxxz              67     -9.537039  1 Na fyyz       
   153     -7.300285  2 Cl dxx              156      7.300285  2 Cl dyy        
    95      3.992076  1 Na gxxxx            105     -3.992076  1 Na gyyyy      
    38     -3.332576  1 Na dxx               41      3.332576  1 Na dyy        

 Vector   86  Occ=0.000000D+00  E= 5.314821D-01  Symmetry=e
              MO Center=  9.4D-13,  5.0D-13, -5.2D-01, r^2= 8.7D+00
   Bfn.  Coefficient  Atom+Function         Bfn.  Coefficient  Atom+Function  
  ----- ------------  ---------------      ----- ------------  ---------------
    65     10.605400  1 Na fxzz              75     -7.783559  1 Na fxzz       
    17      6.579534  1 Na px                40     -6.485350  1 Na dxz        
   104      6.091794  1 Na gxzzz             68      5.582146  1 Na fyzz       
   132      5.356933  2 Cl px               126     -4.205579  2 Cl px         
    70     -4.163083  1 Na fxxx              73     -4.161527  1 Na fxyy       

 Vector   87  Occ=0.000000D+00  E= 5.314821D-01  Symmetry=e
              MO Center=  1.1D-11, -2.0D-11, -5.2D-01, r^2= 8.7D+00
   Bfn.  Coefficient  Atom+Function         Bfn.  Coefficient  Atom+Function  
  ----- ------------  ---------------      ----- ------------  ---------------
    68     10.605400  1 Na fyzz              78     -7.783559  1 Na fyzz       
    18      6.579534  1 Na py                42     -6.485350  1 Na dyz        
   108      6.091794  1 Na gyzzz             65     -5.582146  1 Na fxzz       
   133      5.356933  2 Cl py               127     -4.205579  2 Cl py         
    71     -4.161527  1 Na fxxy              76     -4.163083  1 Na fyyy       

 Vector   88  Occ=0.000000D+00  E= 5.971647D-01  Symmetry=a1
              MO Center= -4.0D-12,  1.5D-12, -8.9D-01, r^2= 1.2D+01
   Bfn.  Coefficient  Atom+Function         Bfn.  Coefficient  Atom+Function  
  ----- ------------  ---------------      ----- ------------  ---------------
   100     15.688686  1 Na gxxzz            107     15.688686  1 Na gyyzz      
     5    -11.975745  1 Na s                131    -11.145528  2 Cl pz         
   109     10.964287  1 Na gzzzz             98      9.640560  1 Na gxxyy      
     6     -8.956840  1 Na s                 37     -8.830116  1 Na dzz        
    32     -7.002001  1 Na dxx               35     -7.002001  1 Na dyy        

 Vector   89  Occ=0.000000D+00  E= 6.055568D-01  Symmetry=b1
              MO Center=  5.5D-16, -2.0D-15, -3.8D-01, r^2= 7.5D+00
   Bfn.  Coefficient  Atom+Function         Bfn.  Coefficient  Atom+Function  
  ----- ------------  ---------------      ----- ------------  ---------------
    32      7.556826  1 Na dxx               35     -7.556826  1 Na dyy        
   135     -6.853596  2 Cl dxx              138      6.853596  2 Cl dyy        
    95     -5.728648  1 Na gxxxx            105      5.728648  1 Na gyyyy      
[...]

 Vector  188  Occ=0.000000D+00  E= 4.826573D+00  Symmetry=b1
              MO Center= -6.1D-15, -2.5D-14,  6.3D-01, r^2= 1.3D+00
   Bfn.  Coefficient  Atom+Function         Bfn.  Coefficient  Atom+Function  
  ----- ------------  ---------------      ----- ------------  ---------------
   135     19.214401  2 Cl dxx              138    -19.214401  2 Cl dyy        
   204     -9.180137  2 Cl gxxxx            214      9.180137  2 Cl gyyyy      
   181     -8.690725  2 Cl fxxz             186      8.690725  2 Cl fyyz       
    52     -8.093038  1 Na fxxz              57      8.093038  1 Na fyyz       
    26     -7.995630  1 Na dxx               29      7.995630  1 Na dyy        

 Vector  189  Occ=0.000000D+00  E= 4.826577D+00  Symmetry=b2
              MO Center=  1.9D-16, -2.6D-17,  6.3D-01, r^2= 1.3D+00
   Bfn.  Coefficient  Atom+Function         Bfn.  Coefficient  Atom+Function  
  ----- ------------  ---------------      ----- ------------  ---------------
   136     38.426211  2 Cl dxy              205    -18.358834  2 Cl gxxxy      
   210    -18.358834  2 Cl gxyyy            183    -17.381899  2 Cl fxyz       
    54    -16.184977  1 Na fxyz              27    -15.990809  1 Na dxy        
   197    -12.947513  2 Cl gxyzz             81      6.387944  1 Na gxxxy      
    86      6.387944  1 Na gxyyy            142     -4.010734  2 Cl dxy        

 Vector  190  Occ=0.000000D+00  E= 4.883487D+00  Symmetry=e
              MO Center=  1.4D-13, -8.0D-13,  3.3D-01, r^2= 1.6D+00
   Bfn.  Coefficient  Atom+Function         Bfn.  Coefficient  Atom+Function  
  ----- ------------  ---------------      ----- ------------  ---------------
   127     54.165102  2 Cl py               167    -34.018280  2 Cl fyzz       
   160    -28.413046  2 Cl fxxy             165    -28.413945  2 Cl fyyy       
   130     21.350461  2 Cl py               124    -21.023108  2 Cl py         
    30     16.988039  1 Na dyz              139    -17.029014  2 Cl dyz        
   208     14.856105  2 Cl gxxyz            215     14.851075  2 Cl gyyyz      

 Vector  191  Occ=0.000000D+00  E= 4.883487D+00  Symmetry=e
              MO Center=  2.8D-12,  4.7D-13,  3.3D-01, r^2= 1.6D+00
   Bfn.  Coefficient  Atom+Function         Bfn.  Coefficient  Atom+Function  
  ----- ------------  ---------------      ----- ------------  ---------------
   126     54.165102  2 Cl px               164    -34.018280  2 Cl fxzz       
   159    -28.413945  2 Cl fxxx             162    -28.413046  2 Cl fxyy       
   129     21.350461  2 Cl px               123    -21.023108  2 Cl px         
    28     16.988039  1 Na dxz              137    -17.029014  2 Cl dxz        
   206     14.851075  2 Cl gxxxz            211     14.856105  2 Cl gxyyz      

 Vector  192  Occ=0.000000D+00  E= 5.147878D+00  Symmetry=a1
              MO Center= -6.3D-13,  1.0D-13,  4.9D-01, r^2= 1.3D+00
   Bfn.  Coefficient  Atom+Function         Bfn.  Coefficient  Atom+Function  
  ----- ------------  ---------------      ----- ------------  ---------------
    31      9.632983  1 Na dzz               59      9.480965  1 Na fzzz       
   168     -7.240275  2 Cl fzzz               3      6.481779  1 Na s          
   113     -6.036029  2 Cl s                194     -5.279842  2 Cl gxxzz      
   201     -5.279842  2 Cl gyyzz            128      5.178135  2 Cl pz         
   181     -4.424216  2 Cl fxxz             186     -4.424216  2 Cl fyyz       

 Vector  193  Occ=0.000000D+00  E= 5.376575D+00  Symmetry=a1
              MO Center= -2.0D-12,  5.0D-13, -2.5D-01, r^2= 2.8D+00
   Bfn.  Coefficient  Atom+Function         Bfn.  Coefficient  Atom+Function  
  ----- ------------  ---------------      ----- ------------  ---------------
    10     84.993756  1 Na pz                13     82.914409  1 Na pz         
   128     42.163864  2 Cl pz                31     41.764390  1 Na dzz        
   168    -28.185072  2 Cl fzzz              83    -24.370030  1 Na gxxyy      
   140    -23.575817  2 Cl dzz              113    -18.517989  2 Cl s          
    32     16.749313  1 Na dxx               35     16.749313  1 Na dyy        

 Vector  194  Occ=0.000000D+00  E= 8.256143D+00  Symmetry=a1
              MO Center=  2.3D-14,  2.0D-14,  3.3D-01, r^2= 9.7D-01
   Bfn.  Coefficient  Atom+Function         Bfn.  Coefficient  Atom+Function  
  ----- ------------  ---------------      ----- ------------  ---------------
   146     29.563553  2 Cl dzz              128     25.120835  2 Cl pz         
   203    -19.074410  2 Cl gzzzz              3    -13.950381  1 Na s          
   194    -12.354658  2 Cl gxxzz            201    -12.354658  2 Cl gyyzz      
   161    -11.880418  2 Cl fxxz             166    -11.880418  2 Cl fyyz       
   192     11.503698  2 Cl gxxyy            141    -11.170257  2 Cl dxx        

 Vector  195  Occ=0.000000D+00  E= 8.321174D+00  Symmetry=e
              MO Center=  3.4D-14,  3.6D-15,  5.0D-01, r^2= 8.2D-01
   Bfn.  Coefficient  Atom+Function         Bfn.  Coefficient  Atom+Function  
  ----- ------------  ---------------      ----- ------------  ---------------
   143     48.733292  2 Cl dxz              198    -28.168244  2 Cl gxzzz      
   191    -27.960071  2 Cl gxxxz            196    -27.963257  2 Cl gxyyz      
   149    -13.001455  2 Cl dxz              137    -10.723247  2 Cl dxz        
   129      9.770776  2 Cl px               126      9.396169  2 Cl px         
   213      7.839010  2 Cl gxzzz            206      7.163341  2 Cl gxxxz      

 Vector  196  Occ=0.000000D+00  E= 8.321174D+00  Symmetry=e
              MO Center=  1.2D-15, -1.3D-14,  5.0D-01, r^2= 8.2D-01
   Bfn.  Coefficient  Atom+Function         Bfn.  Coefficient  Atom+Function  
  ----- ------------  ---------------      ----- ------------  ---------------
   145     48.733292  2 Cl dyz              202    -28.168244  2 Cl gyzzz      
   193    -27.963257  2 Cl gxxyz            200    -27.960071  2 Cl gyyyz      
   151    -13.001455  2 Cl dyz              139    -10.723247  2 Cl dyz        
   130      9.770776  2 Cl py               127      9.396169  2 Cl py         
   217      7.839010  2 Cl gyzzz            208      7.168460  2 Cl gxxyz      

 Vector  197  Occ=0.000000D+00  E= 8.363604D+00  Symmetry=b2
              MO Center=  6.9D-17, -2.1D-16,  5.0D-01, r^2= 7.9D-01
   Bfn.  Coefficient  Atom+Function         Bfn.  Coefficient  Atom+Function  
  ----- ------------  ---------------      ----- ------------  ---------------
   142     47.761965  2 Cl dxy              197    -28.686885  2 Cl gxyzz      
   190    -28.411551  2 Cl gxxxy            195    -28.411551  2 Cl gxyyy      
   148    -13.130148  2 Cl dxy              136     -5.161339  2 Cl dxy        
   212      4.067720  2 Cl gxyzz            205      3.351620  2 Cl gxxxy      
   210      3.351620  2 Cl gxyyy             54     -1.803916  1 Na fxyz       

 Vector  198  Occ=0.000000D+00  E= 8.363863D+00  Symmetry=b1
              MO Center=  9.8D-18, -9.1D-18,  5.0D-01, r^2= 7.9D-01
   Bfn.  Coefficient  Atom+Function         Bfn.  Coefficient  Atom+Function  
  ----- ------------  ---------------      ----- ------------  ---------------
   141     23.880981  2 Cl dxx              144    -23.880981  2 Cl dyy        
   194    -14.343041  2 Cl gxxzz            201     14.343041  2 Cl gyyzz      
   189    -14.205662  2 Cl gxxxx            199     14.205662  2 Cl gyyyy      
   147     -6.565068  2 Cl dxx              150      6.565068  2 Cl dyy        
   135     -2.581563  2 Cl dxx              138      2.581563  2 Cl dyy        

 Vector  199  Occ=0.000000D+00  E= 8.558770D+00  Symmetry=a1
              MO Center=  7.7D-13, -1.7D-13,  2.8D-01, r^2= 2.1D+00
   Bfn.  Coefficient  Atom+Function         Bfn.  Coefficient  Atom+Function  
  ----- ------------  ---------------      ----- ------------  ---------------
   131    -24.212414  2 Cl pz               192     23.153095  2 Cl gxxyy      
     3     23.006125  1 Na s                 31    -17.744734  1 Na dzz        
   194     17.017851  2 Cl gxxzz            201     17.017851  2 Cl gyyzz      
   114    -15.738378  2 Cl s                  2     15.633214  1 Na s          
   141    -12.366879  2 Cl dxx              144    -12.366879  2 Cl dyy        

 Vector  200  Occ=0.000000D+00  E= 9.154063D+00  Symmetry=a1
              MO Center= -1.2D-13,  5.6D-14,  7.3D-01, r^2= 9.9D-01
   Bfn.  Coefficient  Atom+Function         Bfn.  Coefficient  Atom+Function  
  ----- ------------  ---------------      ----- ------------  ---------------
   128    109.660949  2 Cl pz               168    -49.292598  2 Cl fzzz       
   161    -48.784793  2 Cl fxxz             166    -48.784793  2 Cl fyyz       
   125    -31.020789  2 Cl pz                 4    -10.415454  1 Na s          
   188     -8.866628  2 Cl fzzz             181     -8.172025  2 Cl fxxz       
   186     -8.172025  2 Cl fyyz             146     -7.440799  2 Cl dzz        

 Vector  201  Occ=0.000000D+00  E= 9.215092D+00  Symmetry=e
              MO Center=  4.1D-14, -2.8D-16,  5.4D-01, r^2= 9.0D-01
   Bfn.  Coefficient  Atom+Function         Bfn.  Coefficient  Atom+Function  
  ----- ------------  ---------------      ----- ------------  ---------------
   126    106.836298  2 Cl px               164    -49.086318  2 Cl fxzz       
   159    -48.635497  2 Cl fxxx             162    -48.635536  2 Cl fxyy       
   123    -30.535279  2 Cl px               129     14.853561  2 Cl px         
   184    -11.756771  2 Cl fxzz             179    -11.427373  2 Cl fxxx       
   182    -11.427177  2 Cl fxyy             169     -6.646977  2 Cl fxxx       

 Vector  202  Occ=0.000000D+00  E= 9.215092D+00  Symmetry=e
              MO Center= -7.5D-17, -1.1D-14,  5.4D-01, r^2= 9.0D-01
   Bfn.  Coefficient  Atom+Function         Bfn.  Coefficient  Atom+Function  
  ----- ------------  ---------------      ----- ------------  ---------------
   127    106.836298  2 Cl py               167    -49.086318  2 Cl fyzz       
   160    -48.635536  2 Cl fxxy             165    -48.635497  2 Cl fyyy       
   124    -30.535279  2 Cl py               130     14.853561  2 Cl py         
   187    -11.756771  2 Cl fyzz             180    -11.427177  2 Cl fxxy       
   185    -11.427373  2 Cl fyyy             170     -6.646948  2 Cl fxxy       

 Vector  203  Occ=0.000000D+00  E= 1.020455D+01  Symmetry=a1
              MO Center=  4.7D-13, -2.7D-12, -4.8D-01, r^2= 3.3D+00
   Bfn.  Coefficient  Atom+Function         Bfn.  Coefficient  Atom+Function  
  ----- ------------  ---------------      ----- ------------  ---------------
     3     68.819804  1 Na s                  2     46.118634  1 Na s          
    10     37.954082  1 Na pz                13     37.248808  1 Na pz         
   113    -27.643715  2 Cl s                135    -21.356111  2 Cl dxx        
   138    -21.356111  2 Cl dyy              114     20.782179  2 Cl s          
   140     20.716612  2 Cl dzz                4     18.941405  1 Na s          

 Vector  204  Occ=0.000000D+00  E= 1.610390D+01  Symmetry=a1
              MO Center= -7.5D-13,  1.4D-12,  3.9D-01, r^2= 1.8D+00
   Bfn.  Coefficient  Atom+Function         Bfn.  Coefficient  Atom+Function  
  ----- ------------  ---------------      ----- ------------  ---------------
   112     39.551759  2 Cl s                131     37.041644  2 Cl pz         
   113     31.943302  2 Cl s                 37    -23.474702  1 Na dzz        
   111     22.236801  2 Cl s                  4     20.836268  1 Na s          
     3     20.638602  1 Na s                 19    -19.571549  1 Na pz         
    31     19.450432  1 Na dzz              152    -14.461931  2 Cl dzz        

 Vector  205  Occ=0.000000D+00  E= 3.871213D+01  Symmetry=e
              MO Center= -1.1D-17,  3.8D-16,  4.4D-01, r^2= 1.2D+00
   Bfn.  Coefficient  Atom+Function         Bfn.  Coefficient  Atom+Function  
  ----- ------------  ---------------      ----- ------------  ---------------
   127    119.716823  2 Cl py               124   -100.404924  2 Cl py         
   118     97.468645  2 Cl py               121     84.229371  2 Cl py         
   160    -48.846754  2 Cl fxxy             165    -48.846515  2 Cl fyyy       
   167    -48.417453  2 Cl fyzz             130     29.262737  2 Cl py         
   170     21.903113  2 Cl fxxy             175     21.903104  2 Cl fyyy       

 Vector  206  Occ=0.000000D+00  E= 3.871213D+01  Symmetry=e
              MO Center= -1.4D-15,  4.1D-17,  4.4D-01, r^2= 1.2D+00
   Bfn.  Coefficient  Atom+Function         Bfn.  Coefficient  Atom+Function  
  ----- ------------  ---------------      ----- ------------  ---------------
   126    119.716823  2 Cl px               123   -100.404924  2 Cl px         
   117     97.468645  2 Cl px               120     84.229371  2 Cl px         
   159    -48.846515  2 Cl fxxx             162    -48.846754  2 Cl fxyy       
   164    -48.417453  2 Cl fxzz             129     29.262737  2 Cl px         
   169     21.903104  2 Cl fxxx             172     21.903113  2 Cl fxyy       

 Vector  207  Occ=0.000000D+00  E= 3.971147D+01  Symmetry=a1
              MO Center= -2.3D-13,  5.9D-13,  4.4D-01, r^2= 7.5D-01
   Bfn.  Coefficient  Atom+Function         Bfn.  Coefficient  Atom+Function  
  ----- ------------  ---------------      ----- ------------  ---------------
   128    111.733020  2 Cl pz               119     97.956509  2 Cl pz         
   125    -96.948986  2 Cl pz               122     84.633619  2 Cl pz         
   161    -43.465183  2 Cl fxxz             166    -43.465183  2 Cl fyyz       
   168    -41.178056  2 Cl fzzz              37     25.312374  1 Na dzz        
   171     22.554246  2 Cl fxxz             176     22.554246  2 Cl fyyz       

 Vector  208  Occ=0.000000D+00  E= 1.112670D+02  Symmetry=a1
              MO Center= -2.1D-12,  6.8D-12,  2.0D-01, r^2= 7.4D+00
   Bfn.  Coefficient  Atom+Function         Bfn.  Coefficient  Atom+Function  
  ----- ------------  ---------------      ----- ------------  ---------------
   112    125.558159  2 Cl s                131    107.646510  2 Cl pz         
   111     95.959352  2 Cl s                113     78.855397  2 Cl s          
    37    -59.902834  1 Na dzz                4     45.266250  1 Na s          
   114    -41.091190  2 Cl s                  5     37.622206  1 Na s          
    31     34.595709  1 Na dzz               19    -33.040120  1 Na pz         


------------------------------------------------------------
EAF file 0: "./nacl_aug-cc-pvqz.aoints.0" size=871890944 bytes
------------------------------------------------------------
               write      read    awrite     aread      wait
               -----      ----    ------     -----      ----
     calls:     1663         8         0     13296     13296
   data(b): 8.72e+08  4.19e+06  0.00e+00  6.97e+09
   time(s): 0.00e+00  0.00e+00  0.00e+00  0.00e+00  0.00e+00
rate(mb/s): 0.00e+00  0.00e+00
------------------------------------------------------------


 center of mass
 --------------
 x =   0.00000000 y =   0.00000000 z =  -0.00911367

 moments of inertia (a.u.)
 ------------------
          79.721070261053           0.000000000000           0.000000000000
           0.000000000000          79.721070261053           0.000000000000
           0.000000000000           0.000000000000           0.000000000000

     Multipole analysis of the density
     ---------------------------------

     L   x y z        total         alpha         beta         nuclear
     -   - - -        -----         -----         ----         -------
     0   0 0 0     -0.000000    -14.000000    -14.000000     28.000000

     1   1 0 0      0.000000      0.000000      0.000000      0.000000
     1   0 1 0      0.000000      0.000000      0.000000      0.000000
     1   0 0 1     -1.418812     -0.709406     -0.709406      0.000000

     2   2 0 0    -15.081596     -7.540798     -7.540798      0.000000
     2   1 1 0      0.000000      0.000000      0.000000      0.000000
     2   1 0 1      0.000000      0.000000      0.000000      0.000000
     2   0 2 0    -15.081596     -7.540798     -7.540798      0.000000
     2   0 1 1      0.000000      0.000000      0.000000      0.000000
     2   0 0 2    -14.466797    -26.425760    -26.425760     38.384723


 Parallel integral file used    1663 records with       0 large values


 Task  times  cpu:       85.9s     wall:       85.9s
 Summary of allocated global arrays
-----------------------------------
  No active global arrays



                         GA Statistics for process    0
                         ------------------------------

       create   destroy   get      put      acc     scatter   gather  read&inc
calls:  268      268     3.95e+04 1.67e+04 1906        0        0      757     
number of processes/call 0.00e+00 0.00e+00 0.00e+00 0.00e+00 0.00e+00
bytes total:             3.96e+08 1.04e+08 2.21e+08 0.00e+00 0.00e+00 6.06e+03
bytes remote:            0.00e+00 0.00e+00 0.00e+00 0.00e+00 0.00e+00 0.00e+00
Max memory consumed for GA by this process: 14827488 bytes
MA_summarize_allocated_blocks: starting scan ...
MA_summarize_allocated_blocks: scan completed: 0 heap blocks, 0 stack blocks
MA usage statistics:

	allocation statistics:
					      heap	     stack
					      ----	     -----
	current number of blocks	         0	         0
	maximum number of blocks	        21	        57
	current total bytes		         0	         0
	maximum total bytes		   3891864	  44749736
	maximum total K-bytes		      3892	     44750
	maximum total M-bytes		         4	        45


                                NWChem Input Module
                                -------------------





                                     CITATION
                                     --------
                Please cite the following reference when publishing
                           results obtained with NWChem:

                 M. Valiev, E.J. Bylaska, N. Govind, K. Kowalski,
              T.P. Straatsma, H.J.J. van Dam, D. Wang, J. Nieplocha,
                        E. Apra, T.L. Windus, W.A. de Jong
                 "NWChem: a comprehensive and scalable open-source
                  solution for large scale molecular simulations"
                      Comput. Phys. Commun. 181, 1477 (2010)
                           doi:10.1016/j.cpc.2010.04.018

                                      AUTHORS
                                      -------
     E. Apra, E. J. Bylaska, N. Govind, K. Kowalski, M. Valiev, W. A. de Jong,
      T. P. Straatsma, H. J. J. van Dam, D. Wang, T. L. Windus, N. P. Bauman,
       A. Panyala, J. Hammond, J. Autschbach, K. Bhaskaran-Nair, J. Brabec,
    K. Lopata, S. A. Fischer, S. Krishnamoorthy, M. Jacquelin, W. Ma, M. Klemm,
       O. Villa, Y. Chen, V. Anisimov, F. Aquino, S. Hirata, M. T. Hackler,
           Eric Hermes, L. Jensen, J. E. Moore, J. C. Becca, V. Konjkov,
            D. Mejia-Rodriguez, T. Risthaus, M. Malagoli, A. Marenich,
   A. Otero-de-la-Roza, J. Mullin, P. Nichols, R. Peverati, J. Pittner, Y. Zhao,
        P.-D. Fan, A. Fonari, M. J. Williamson, R. J. Harrison, J. R. Rehr,
      M. Dupuis, D. Silverstein, D. M. A. Smith, J. Nieplocha, V. Tipparaju,
      M. Krishnan, B. E. Van Kuiken, A. Vazquez-Mayagoitia, M. Swart, Q. Wu,
   T. Van Voorhis, A. A. Auer, M. Nooijen, L. D. Crosby, E. Brown, G. Cisneros,
     G. I. Fann, H. Fruchtl, J. Garza, K. Hirao, R. A. Kendall, J. A. Nichols,
       K. Tsemekhman, K. Wolinski, J. Anchell, D. E. Bernholdt, P. Borowski,
       T. Clark, D. Clerc, H. Dachsel, M. J. O. Deegan, K. Dyall, D. Elwood,
      E. Glendening, M. Gutowski, A. C. Hess, J. Jaffe, B. G. Johnson, J. Ju,
        R. Kobayashi, R. Kutteh, Z. Lin, R. Littlefield, X. Long, B. Meng,
      T. Nakajima, S. Niu, L. Pollack, M. Rosing, K. Glaesemann, G. Sandrone,
      M. Stave, H. Taylor, G. Thomas, J. H. van Lenthe, A. T. Wong, Z. Zhang.

 Total times  cpu:       85.9s     wall:       85.9s
