 argument  1 = nh4_cc-pvtz.inp
                                         
                                         


             Northwest Computational Chemistry Package (NWChem) 7.0.0
             --------------------------------------------------------


                    Environmental Molecular Sciences Laboratory
                       Pacific Northwest National Laboratory
                                Richland, WA 99352

                              Copyright (c) 1994-2019
                       Pacific Northwest National Laboratory
                            Battelle Memorial Institute

             NWChem is an open-source computational chemistry package
                        distributed under the terms of the
                      Educational Community License (ECL) 2.0
             A copy of the license is included with this distribution
                              in the LICENSE.TXT file

                                  ACKNOWLEDGMENT
                                  --------------

            This software and its documentation were developed at the
            EMSL at Pacific Northwest National Laboratory, a multiprogram
            national laboratory, operated for the U.S. Department of Energy
            by Battelle under Contract Number DE-AC05-76RL01830. Support
            for this work was provided by the Department of Energy Office
            of Biological and Environmental Research, Office of Basic
            Energy Sciences, and the Office of Advanced Scientific Computing.


           Job information
           ---------------

    hostname        = Amanda-Dewyers-MacBook-Air.local
    program         = nwchem
    date            = Fri Sep 11 17:27:36 2020

    compiled        = Fri_Jul_03_06:05:09_2020
    source          = /private/tmp/nwchem-20200703-71421-tc8c0i/nwchem-7.0.0
    nwchem branch   = 7.0.0
    nwchem revision = 2c9a1c7c
    ga revision     = 5.7.1
    use scalapack   = T
    input           = nh4_cc-pvtz.inp
    prefix          = nh4_cc-pvtz.
    data base       = ./nh4_cc-pvtz.db
    status          = startup
    nproc           =        1
    time left       =     -1s



           Memory information
           ------------------

    heap     =   13107196 doubles =    100.0 Mbytes
    stack    =   13107201 doubles =    100.0 Mbytes
    global   =   26214400 doubles =    200.0 Mbytes (distinct from heap & stack)
    total    =   52428797 doubles =    400.0 Mbytes
    verify   = yes
    hardfail = no 


           Directory information
           ---------------------

  0 permanent = .
  0 scratch   = .




                                NWChem Input Module
                                -------------------


                                     test case
                                     ---------
 C1  symmetry detected

          ------
          auto-z
          ------
  no constraints, skipping    0.0000000000000000     
  no constraints, skipping    0.0000000000000000     


                             Geometry "geometry" -> ""
                             -------------------------

 Output coordinates in a.u. (scale by  1.000000000 to convert to a.u.)

  No.       Tag          Charge          X              Y              Z
 ---- ---------------- ---------- -------------- -------------- --------------
    1 N                    7.0000     0.00001682    -0.00000000     0.00000806
    2 H                    1.0000    -0.99011928    -0.20294100     0.17987908
    3 H                    1.0000     0.56649954    -0.82246279     0.23776620
    4 H                    1.0000     0.29585203     0.79730895     0.57506355
    5 H                    1.0000     0.12764994     0.22809484    -0.99276521

      Atomic Mass 
      ----------- 

      N                 14.003070
      H                  1.007825


 Effective nuclear repulsion energy (a.u.)      30.8536052699

            Nuclear Dipole moment (a.u.) 
            ----------------------------
        X                 Y               Z
 ---------------- ---------------- ----------------
     0.0000000000    -0.0000000000     0.0000000000



                                Z-matrix (autoz)
                                -------- 

 Units are Angstrom for bonds and degrees for angles

      Type          Name      I     J     K     L     M      Value
      ----------- --------  ----- ----- ----- ----- ----- ----------
    1 Stretch                  1     2                       0.54325
    2 Stretch                  1     3                       0.54325
    3 Stretch                  1     4                       0.54325
    4 Stretch                  1     5                       0.54326
    5 Stretch                  2     3                       0.88710
    6 Stretch                  2     4                       0.88712
    7 Stretch                  2     5                       0.88711
    8 Stretch                  3     4                       0.88717
    9 Stretch                  3     5                       0.88714
   10 Stretch                  4     5                       0.88712
   11 Bend                     1     2     3                35.26638
   12 Bend                     1     2     4                35.26482
   13 Bend                     1     2     5                35.26646
   14 Bend                     1     3     2                35.26699
   15 Bend                     1     3     4                35.26038
   16 Bend                     1     3     5                35.26365
   17 Bend                     1     4     2                35.26481
   18 Bend                     1     4     3                35.25976
   19 Bend                     1     4     5                35.26518
   20 Bend                     1     5     2                35.26630
   21 Bend                     1     5     3                35.26289
   22 Bend                     1     5     4                35.26504
   23 Bend                     2     1     3               109.46663
   24 Bend                     2     1     4               109.47036
   25 Bend                     2     1     5               109.46724
   26 Bend                     2     3     4                59.99933
   27 Bend                     2     3     5                59.99942
   28 Bend                     2     4     3                59.99628
   29 Bend                     2     4     5                59.99890
   30 Bend                     2     5     3                59.99811
   31 Bend                     2     5     4                60.00063
   32 Bend                     3     1     4               109.47985
   33 Bend                     3     1     5               109.47345
   34 Bend                     3     2     4                60.00440
   35 Bend                     3     2     5                60.00248
   36 Bend                     3     4     5                59.99925
   37 Bend                     3     5     4                60.00299
   38 Bend                     4     1     5               109.46979
   39 Bend                     4     2     5                60.00047
   40 Bend                     4     3     5                59.99776
   41 Torsion                  1     2     3     4          35.26008
   42 Torsion                  1     2     3     5         -35.26647
   43 Torsion                  1     2     4     3         -35.26164
   44 Torsion                  1     2     4     5          35.26819
   45 Torsion                  1     2     5     3          35.26640
   46 Torsion                  1     2     5     4         -35.26656
   47 Torsion                  1     3     2     4         -35.26008
   48 Torsion                  1     3     2     5          35.26647
   49 Torsion                  1     3     4     2          35.26668
   50 Torsion                  1     3     4     5         -35.26257
   51 Torsion                  1     3     5     2         -35.26981
   52 Torsion                  1     3     5     4          35.25930
   53 Torsion                  1     4     2     3          35.26164
   54 Torsion                  1     4     2     5         -35.26819
   55 Torsion                  1     4     3     2         -35.26668
   56 Torsion                  1     4     3     5          35.26257
   57 Torsion                  1     4     5     2          35.26782
   58 Torsion                  1     4     5     3         -35.25716
   59 Torsion                  1     5     2     3         -35.26640
   60 Torsion                  1     5     2     4          35.26656
   61 Torsion                  1     5     3     2          35.26981
   62 Torsion                  1     5     3     4         -35.25930
   63 Torsion                  1     5     4     2         -35.26782
   64 Torsion                  1     5     4     3          35.25716
   65 Torsion                  2     1     3     4        -120.00142
   66 Torsion                  2     1     3     5         119.99368
   67 Torsion                  2     1     4     3         119.99913
   68 Torsion                  2     1     4     5        -119.99373
   69 Torsion                  2     1     5     3        -119.99330
   70 Torsion                  2     1     5     4         119.99564
   71 Torsion                  2     3     1     4         120.00142
   72 Torsion                  2     3     1     5        -119.99368
   73 Torsion                  2     3     4     5         -70.52925
   74 Torsion                  2     3     5     4          70.52911
   75 Torsion                  2     4     1     3        -119.99913
   76 Torsion                  2     4     1     5         119.99373
   77 Torsion                  2     4     3     5          70.52925
   78 Torsion                  2     4     5     3         -70.52498
   79 Torsion                  2     5     1     3         119.99330
   80 Torsion                  2     5     1     4        -119.99564
   81 Torsion                  2     5     3     4         -70.52911
   82 Torsion                  2     5     4     3          70.52498
   83 Torsion                  3     1     2     4         120.00723
   84 Torsion                  3     1     2     5        -119.99748
   85 Torsion                  3     1     4     5         120.00714
   86 Torsion                  3     1     5     4        -120.01106
   87 Torsion                  3     2     1     4        -120.00723
   88 Torsion                  3     2     1     5         119.99748
   89 Torsion                  3     2     4     5          70.52983
   90 Torsion                  3     2     5     4         -70.53296
   91 Torsion                  3     4     1     5        -120.00714
   92 Torsion                  3     4     2     5         -70.52983
   93 Torsion                  3     5     1     4         120.01106
   94 Torsion                  3     5     2     4          70.53296
   95 Torsion                  4     1     2     5         119.99528
   96 Torsion                  4     1     3     5        -120.00490
   97 Torsion                  4     2     1     5        -119.99528
   98 Torsion                  4     2     3     5         -70.52655
   99 Torsion                  4     3     1     5         120.00490
  100 Torsion                  4     3     2     5          70.52655


            XYZ format geometry
            -------------------
     5
 geometry
 N                     0.00000890    -0.00000000     0.00000426
 H                    -0.52394860    -0.10739176     0.09518792
 H                     0.29977867    -0.43522860     0.12582046
 H                     0.15655816     0.42191776     0.30431055
 H                     0.06754944     0.12070260    -0.52534876

 ==============================================================================
                                internuclear distances
 ------------------------------------------------------------------------------
       center one      |      center two      | atomic units |       a.u.
 ------------------------------------------------------------------------------
    2 H                |   1 N                |     1.02660  |     1.02660
    3 H                |   1 N                |     1.02658  |     1.02658
    4 H                |   1 N                |     1.02660  |     1.02660
    5 H                |   1 N                |     1.02660  |     1.02660
 ------------------------------------------------------------------------------
                         number of included internuclear distances:          4
 ==============================================================================



 ==============================================================================
                                 internuclear angles
 ------------------------------------------------------------------------------
        center 1       |       center 2       |       center 3       |  degrees
 ------------------------------------------------------------------------------
    2 H                |   1 N                |   3 H                |   109.47
    2 H                |   1 N                |   4 H                |   109.47
    2 H                |   1 N                |   5 H                |   109.47
    3 H                |   1 N                |   4 H                |   109.48
    3 H                |   1 N                |   5 H                |   109.47
    4 H                |   1 N                |   5 H                |   109.47
 ------------------------------------------------------------------------------
                            number of included internuclear angles:          6
 ==============================================================================



  library name resolved from: .nwchemrc
  library file name is: </usr/local/Cellar/nwchem/7.0.0_2/share/nwchem/libraries/>
  


 Summary of "ao basis" -> "" (cartesian)
 ------------------------------------------------------------------------------
       Tag                 Description            Shells   Functions and Types
 ---------------- ------------------------------  ------  ---------------------
 *                          cc-pvtz                   on all atoms 



                                 NWChem DFT Module
                                 -----------------


                                     test case


                      Basis "ao basis" -> "ao basis" (cartesian)
                      -----
  N (Nitrogen)
  ------------
            Exponent  Coefficients 
       -------------- ---------------------------------------------------------
  1 S  1.14200000E+04  0.000523
  1 S  1.71200000E+03  0.004045
  1 S  3.89300000E+02  0.020775
  1 S  1.10000000E+02  0.080727
  1 S  3.55700000E+01  0.233074
  1 S  1.25400000E+01  0.433501
  1 S  4.64400000E+00  0.347472
  1 S  5.11800000E-01 -0.008508

  2 S  1.14200000E+04 -0.000115
  2 S  1.71200000E+03 -0.000895
  2 S  3.89300000E+02 -0.004624
  2 S  1.10000000E+02 -0.018528
  2 S  3.55700000E+01 -0.057339
  2 S  1.25400000E+01 -0.132076
  2 S  4.64400000E+00 -0.172510
  2 S  5.11800000E-01  0.599944

  3 S  1.29300000E+00  1.000000

  4 S  1.78700000E-01  1.000000

  5 P  2.66300000E+01  0.014670
  5 P  5.94800000E+00  0.091764
  5 P  1.74200000E+00  0.298683

  6 P  5.55000000E-01  1.000000

  7 P  1.72500000E-01  1.000000

  8 D  1.65400000E+00  1.000000

  9 D  4.69000000E-01  1.000000

 10 F  1.09300000E+00  1.000000

  H (Hydrogen)
  ------------
            Exponent  Coefficients 
       -------------- ---------------------------------------------------------
  1 S  3.38700000E+01  0.006068
  1 S  5.09500000E+00  0.045308
  1 S  1.15900000E+00  0.202822

  2 S  3.25800000E-01  1.000000

  3 S  1.02700000E-01  1.000000

  4 P  1.40700000E+00  1.000000

  5 P  3.88000000E-01  1.000000

  6 D  1.05700000E+00  1.000000



 Summary of "ao basis" -> "ao basis" (cartesian)
 ------------------------------------------------------------------------------
       Tag                 Description            Shells   Functions and Types
 ---------------- ------------------------------  ------  ---------------------
 N                          cc-pvtz                 10       35   4s3p2d1f
 H                          cc-pvtz                  6       15   3s2p1d




 Summary of "ao basis" -> "ao basis" (cartesian)
 ------------------------------------------------------------------------------
       Tag                 Description            Shells   Functions and Types
 ---------------- ------------------------------  ------  ---------------------
 N                          cc-pvtz                 10       35   4s3p2d1f
 H                          cc-pvtz                  6       15   3s2p1d


  Caching 1-el integrals 

            General Information
            -------------------
          SCF calculation type: DFT
          Wavefunction type:  closed shell.
          No. of atoms     :     5
          No. of electrons :    10
           Alpha electrons :     5
            Beta electrons :     5
          Charge           :     1
          Spin multiplicity:     1
          Use of symmetry is: off; symmetry adaption is: off
          Maximum number of iterations:  30
          AO basis - number of functions:    95
                     number of shells:    34
          Convergence on energy requested:  1.00D-06
          Convergence on density requested:  1.00D-05
          Convergence on gradient requested:  5.00D-04

              XC Information
              --------------
                         B3LYP Method XC Potential
                     Hartree-Fock (Exact) Exchange  0.200          
                        Slater Exchange Functional  0.800 local    
                    Becke 1988 Exchange Functional  0.720 non-local
              Lee-Yang-Parr Correlation Functional  0.810          
                  VWN I RPA Correlation Functional  0.190 local    

             Grid Information
             ----------------
          Grid used for XC integration:  medium    
          Radial quadrature: Mura-Knowles        
          Angular quadrature: Lebedev. 
          Tag              B.-S. Rad. Rad. Pts. Rad. Cut. Ang. Pts.
          ---              ---------- --------- --------- ---------
          N                   0.65       49           5.0       434
          H                   0.35       45           6.0       434
          Grid pruning is: on 
          Number of quadrature shells:   229
          Spatial weights used:  Erf1

          Convergence Information
          -----------------------
          Convergence aids based upon iterative change in 
          total energy or number of iterations. 
          Levelshifting, if invoked, occurs when the 
          HOMO/LUMO gap drops below (HL_TOL):  1.00D-02
          DIIS, if invoked, will attempt to extrapolate 
          using up to (NFOCK): 10 stored Fock matrices.

                    Damping( 0%)  Levelshifting(0.5)       DIIS
                  --------------- ------------------- ---------------
          dE  on:    start            ASAP                start   
          dE off:    2 iters         30 iters            30 iters 


      Screening Tolerance Information
      -------------------------------
          Density screening/tol_rho:  1.00D-10
          AO Gaussian exp screening on grid/accAOfunc:  14
          CD Gaussian exp screening on grid/accCDfunc:  20
          XC Gaussian exp screening on grid/accXCfunc:  20
          Schwarz screening/accCoul:  1.00D-08


      Superposition of Atomic Density Guess
      -------------------------------------

 Sum of atomic energies:         -56.30883619

 Renormalizing density from      11.00 to     10

      Non-variational initial energy
      ------------------------------

 Total energy =     -52.446519
 1-e energy   =    -113.971474
 2-e energy   =      30.671350
 HOMO         =      -2.008656
 LUMO         =      -0.289194

   Time after variat. SCF:      0.4
   Time prior to 1st pass:      0.4

 Integral file          = ./nh4_cc-pvtz.aoints.0
 Record size in doubles =  65536        No. of integs per rec  =  43688
 Max. records in memory =    325        Max. records in file   = 141680
 No. of bits per label  =      8        No. of bits per value  =     64


 #quartets = 1.773D+05 #integrals = 1.096D+07 #direct =  0.0% #cached =100.0%


 Grid_pts file          = ./nh4_cc-pvtz.gridpts.0
 Record size in doubles =  12289        No. of grid_pts per rec  =   3070
 Max. records in memory =     37        Max. recs in file   =    755561

 Grid integrated density:       9.999982269354
 Requested integration accuracy:   0.10E-05

           Memory utilization after 1st SCF pass: 
           Heap Space remaining (MW):        0.00                  96
          Stack Space remaining (MW):       13.11            13106564

   convergence    iter        energy       DeltaE   RMS-Dens  Diis-err    time
 ---------------- ----- ----------------- --------- --------- ---------  ------
 d= 0,ls=0.0,diis     1    -54.2052628571 -8.51D+01  1.44D-02  6.23D+00     3.0
 Grid integrated density:       9.999986045875
 Requested integration accuracy:   0.10E-05
 d= 0,ls=0.0,diis     2    -54.3599128482 -1.55D-01  4.71D-03  2.30D+00     4.7
 Grid integrated density:       9.999984275273
 Requested integration accuracy:   0.10E-05
 d= 0,ls=0.0,diis     3    -54.5060954405 -1.46D-01  5.41D-04  1.59D-02     6.2
 Grid integrated density:       9.999984424665
 Requested integration accuracy:   0.10E-05
 d= 0,ls=0.0,diis     4    -54.5072620982 -1.17D-03  2.10D-05  1.16D-05     7.6
 Grid integrated density:       9.999984454003
 Requested integration accuracy:   0.10E-05
 d= 0,ls=0.0,diis     5    -54.5072631450 -1.05D-06  5.32D-06  9.59D-09     9.0
 Grid integrated density:       9.999984453944
 Requested integration accuracy:   0.10E-05
 d= 0,ls=0.0,diis     6    -54.5072631462 -1.14D-09  7.79D-08  2.70D-11    10.5


         Total DFT energy =      -54.507263146166
      One electron energy =     -125.784346009108
           Coulomb energy =       49.822569888929
    Exchange-Corr. energy =       -9.399092295863
 Nuclear repulsion energy =       30.853605269876

 Numeric. integr. density =        9.999984453944

     Total iterative time =     10.1s



                       DFT Final Molecular Orbital Analysis
                       ------------------------------------

 Vector    1  Occ=2.000000D+00  E=-1.470250D+01
              MO Center=  8.8D-06, -2.3D-08,  4.2D-06, r^2= 2.0D-02
   Bfn.  Coefficient  Atom+Function         Bfn.  Coefficient  Atom+Function  
  ----- ------------  ---------------      ----- ------------  ---------------
     1      1.007040  1 N  s                  2      0.084747  1 N  s          
     3      0.065733  1 N  s                  4      0.042137  1 N  s          
    37     -0.039942  2 H  s                 52     -0.039951  3 H  s          
    67     -0.039952  4 H  s                 82     -0.039946  5 H  s          

 Vector    2  Occ=2.000000D+00  E=-1.628990D+00
              MO Center= -3.9D-05, -5.2D-06, -1.7D-05, r^2= 4.5D-01
   Bfn.  Coefficient  Atom+Function         Bfn.  Coefficient  Atom+Function  
  ----- ------------  ---------------      ----- ------------  ---------------
     2      0.589146  1 N  s                  4      0.183256  1 N  s          
    36      0.181538  2 H  s                 51      0.181514  3 H  s          
    66      0.181509  4 H  s                 81      0.181525  5 H  s          
    20      0.086842  1 N  dxx               23      0.086860  1 N  dyy        
    25      0.086849  1 N  dzz               37     -0.079055  2 H  s          

 Vector    3  Occ=2.000000D+00  E=-1.140428D+00
              MO Center=  6.1D-02, -1.2D-02,  4.8D-02, r^2= 4.7D-01
   Bfn.  Coefficient  Atom+Function         Bfn.  Coefficient  Atom+Function  
  ----- ------------  ---------------      ----- ------------  ---------------
    52     -0.405779  3 H  s                  6      0.392395  1 N  py         
    67      0.368255  4 H  s                 51     -0.258433  3 H  s          
    66      0.234532  4 H  s                 82      0.136002  5 H  s          
    37     -0.098463  2 H  s                 81      0.086614  5 H  s          
    21     -0.067543  1 N  dxy               30      0.067121  1 N  fxyz       

 Vector    4  Occ=2.000000D+00  E=-1.140377D+00
              MO Center=  3.2D-02,  5.5D-02, -7.2D-02, r^2= 4.7D-01
   Bfn.  Coefficient  Atom+Function         Bfn.  Coefficient  Atom+Function  
  ----- ------------  ---------------      ----- ------------  ---------------
    82      0.460289  5 H  s                  7     -0.388757  1 N  pz         
    67     -0.315970  4 H  s                 81      0.293115  5 H  s          
    66     -0.201207  4 H  s                 52     -0.128683  3 H  s          
    51     -0.081941  3 H  s                 89      0.075483  5 H  pz         
    24      0.057995  1 N  dyz                5     -0.053287  1 N  px         

 Vector    5  Occ=2.000000D+00  E=-1.140361D+00
              MO Center= -9.2D-02, -4.3D-02,  2.3D-02, r^2= 4.6D-01
   Bfn.  Coefficient  Atom+Function         Bfn.  Coefficient  Atom+Function  
  ----- ------------  ---------------      ----- ------------  ---------------
    37      0.486250  2 H  s                  5     -0.389360  1 N  px         
    36      0.309639  2 H  s                 52     -0.255265  3 H  s          
    51     -0.162530  3 H  s                 82     -0.126554  5 H  s          
    67     -0.104501  4 H  s                 42      0.080496  2 H  px         
    81     -0.080577  5 H  s                 66     -0.066534  4 H  s          

 Vector    6  Occ=0.000000D+00  E=-2.039051D-01
              MO Center= -1.1D-04, -5.9D-06, -5.2D-05, r^2= 4.0D+00
   Bfn.  Coefficient  Atom+Function         Bfn.  Coefficient  Atom+Function  
  ----- ------------  ---------------      ----- ------------  ---------------
     4      2.585645  1 N  s                 38     -0.659053  2 H  s          
    53     -0.658875  3 H  s                 68     -0.658877  4 H  s          
    83     -0.658979  5 H  s                  2      0.257167  1 N  s          
    37     -0.257230  2 H  s                 52     -0.257225  3 H  s          
    67     -0.257233  4 H  s                 82     -0.257233  5 H  s          

 Vector    7  Occ=0.000000D+00  E=-1.104484D-01
              MO Center=  2.9D-01, -4.6D-02,  2.4D-01, r^2= 4.4D+00
   Bfn.  Coefficient  Atom+Function         Bfn.  Coefficient  Atom+Function  
  ----- ------------  ---------------      ----- ------------  ---------------
    53      2.908154  3 H  s                 68     -2.708172  4 H  s          
    83     -1.033852  5 H  s                 38      0.833875  2 H  s          
    12      0.744055  1 N  py                 9      0.245726  1 N  py         
     6      0.141724  1 N  py                43     -0.140967  2 H  py         
    88     -0.139123  5 H  py                52     -0.108487  3 H  s          

 Vector    8  Occ=0.000000D+00  E=-1.104428D-01
              MO Center=  1.3D-01,  2.8D-01, -4.0D-01, r^2= 4.3D+00
   Bfn.  Coefficient  Atom+Function         Bfn.  Coefficient  Atom+Function  
  ----- ------------  ---------------      ----- ------------  ---------------
    83      3.448861  5 H  s                 68     -2.211752  4 H  s          
    13      0.744158  1 N  pz                53     -0.671337  3 H  s          
    38     -0.565842  2 H  s                 10      0.245754  1 N  pz         
    44     -0.142861  2 H  pz                 7      0.141761  1 N  pz         
    59     -0.141272  3 H  pz                82     -0.128800  5 H  s          

 Vector    9  Occ=0.000000D+00  E=-1.104411D-01
              MO Center= -4.3D-01, -2.4D-01,  1.6D-01, r^2= 4.3D+00
   Bfn.  Coefficient  Atom+Function         Bfn.  Coefficient  Atom+Function  
  ----- ------------  ---------------      ----- ------------  ---------------
    38      3.486054  2 H  s                 53     -2.063906  3 H  s          
    68     -0.970283  4 H  s                 11      0.745380  1 N  px         
    83     -0.452006  5 H  s                  8      0.246139  1 N  px         
    87     -0.144325  5 H  px                 5      0.142004  1 N  px         
    72     -0.137961  4 H  px                37     -0.130235  2 H  s          

 Vector   10  Occ=0.000000D+00  E= 9.173563D-02
              MO Center=  1.0D-01,  6.3D-02, -7.2D-02, r^2= 2.9D+00
   Bfn.  Coefficient  Atom+Function         Bfn.  Coefficient  Atom+Function  
  ----- ------------  ---------------      ----- ------------  ---------------
    37      3.846173  2 H  s                 11      3.549652  1 N  px         
    38      3.226420  2 H  s                 52     -2.845540  3 H  s          
    53     -2.387101  3 H  s                 67     -2.248450  4 H  s          
    68     -1.886211  4 H  s                 13      1.507481  1 N  pz         
    82      1.248102  5 H  s                  8      1.052479  1 N  px         

 Vector   11  Occ=0.000000D+00  E= 9.173955D-02
              MO Center=  1.4D-02, -9.0D-02,  1.5D-01, r^2= 2.9D+00
   Bfn.  Coefficient  Atom+Function         Bfn.  Coefficient  Atom+Function  
  ----- ------------  ---------------      ----- ------------  ---------------
    82      4.181933  5 H  s                 13      3.502385  1 N  pz         
    83      3.508144  5 H  s                 67     -2.479818  4 H  s          
    37     -2.336966  2 H  s                 68     -2.080237  4 H  s          
    38     -1.960476  2 H  s                 11     -1.481767  1 N  px         
    10      1.038427  1 N  pz                12      0.641580  1 N  py         

 Vector   12  Occ=0.000000D+00  E= 9.175389D-02
              MO Center= -1.1D-01,  2.6D-02, -8.2D-02, r^2= 2.9D+00
   Bfn.  Coefficient  Atom+Function         Bfn.  Coefficient  Atom+Function  
  ----- ------------  ---------------      ----- ------------  ---------------
    12      3.803137  1 N  py                52      3.691620  3 H  s          
    67     -3.304911  4 H  s                 53      3.096883  3 H  s          
    68     -2.772468  4 H  s                 82     -1.755240  5 H  s          
    83     -1.472490  5 H  s                 37      1.368515  2 H  s          
    38      1.148088  2 H  s                  9      1.127489  1 N  py         

 Vector   13  Occ=0.000000D+00  E= 2.313054D-01
              MO Center= -2.8D-05, -1.9D-05,  7.1D-06, r^2= 1.8D+00
   Bfn.  Coefficient  Atom+Function         Bfn.  Coefficient  Atom+Function  
  ----- ------------  ---------------      ----- ------------  ---------------
    21      1.335927  1 N  dxy               24     -1.338166  1 N  dyz        
    43      1.201292  2 H  py                88     -1.185407  5 H  py         
    74      1.017691  4 H  pz                57      1.005586  3 H  px         
    23      0.787501  1 N  dyy               73     -0.562300  4 H  py         
    58      0.546676  3 H  py                59     -0.506091  3 H  pz         

 Vector   14  Occ=0.000000D+00  E= 2.313152D-01
              MO Center= -8.2D-05,  1.2D-05, -5.7D-05, r^2= 1.8D+00
   Bfn.  Coefficient  Atom+Function         Bfn.  Coefficient  Atom+Function  
  ----- ------------  ---------------      ----- ------------  ---------------
    22      2.093705  1 N  dxz               44      1.214759  2 H  pz         
    87      1.214379  5 H  px                59     -1.107198  3 H  pz         
    72     -1.105284  4 H  px                24     -0.588261  1 N  dyz        
    73      0.552762  4 H  py                58     -0.512346  3 H  py         
    21      0.456777  1 N  dxy               23     -0.415840  1 N  dyy        

 Vector   15  Occ=0.000000D+00  E= 2.616456D-01
              MO Center= -2.0D-04, -1.3D-05, -8.8D-05, r^2= 4.7D+00
   Bfn.  Coefficient  Atom+Function         Bfn.  Coefficient  Atom+Function  
  ----- ------------  ---------------      ----- ------------  ---------------
     4     12.763301  1 N  s                 37     -2.007700  2 H  s          
    52     -2.007817  3 H  s                 67     -2.007834  4 H  s          
    82     -2.007750  5 H  s                 38     -1.349917  2 H  s          
    53     -1.349088  3 H  s                 68     -1.349080  4 H  s          
    83     -1.349574  5 H  s                 20     -0.553931  1 N  dxx        

 Vector   16  Occ=0.000000D+00  E= 3.698971D-01
              MO Center=  4.0D-01,  2.2D-01,  4.4D-01, r^2= 3.2D+00
   Bfn.  Coefficient  Atom+Function         Bfn.  Coefficient  Atom+Function  
  ----- ------------  ---------------      ----- ------------  ---------------
    68      4.741005  4 H  s                 53     -3.555667  3 H  s          
    12     -3.036088  1 N  py                13     -1.257007  1 N  pz         
    88      0.912907  5 H  py                83     -0.893744  5 H  s          
    43      0.856324  2 H  py                67     -0.743073  4 H  s          
    52      0.557244  3 H  s                 59      0.541729  3 H  pz         

 Vector   17  Occ=0.000000D+00  E= 3.699030D-01
              MO Center=  2.5D-01, -1.4D-01, -3.1D-01, r^2= 3.4D+00
   Bfn.  Coefficient  Atom+Function         Bfn.  Coefficient  Atom+Function  
  ----- ------------  ---------------      ----- ------------  ---------------
    83      4.055802  5 H  s                 53     -3.684740  3 H  s          
    13      2.648411  1 N  pz                68     -1.904836  4 H  s          
    11      1.690048  1 N  px                38      1.533358  2 H  s          
    12     -0.983847  1 N  py                44     -0.817391  2 H  pz         
    82     -0.635862  5 H  s                 73      0.608268  4 H  py         

 Vector   18  Occ=0.000000D+00  E= 3.699151D-01
              MO Center= -6.5D-01, -7.8D-02, -1.3D-01, r^2= 3.2D+00
   Bfn.  Coefficient  Atom+Function         Bfn.  Coefficient  Atom+Function  
  ----- ------------  ---------------      ----- ------------  ---------------
    38      4.956426  2 H  s                 83     -3.123225  5 H  s          
    11      2.817760  1 N  px                13     -1.497902  1 N  pz         
    68     -0.947833  4 H  s                 53     -0.885671  3 H  s          
    12      0.807811  1 N  py                37     -0.777455  2 H  s          
    72     -0.746243  4 H  px                87     -0.720799  5 H  px         

 Vector   19  Occ=0.000000D+00  E= 7.062701D-01
              MO Center= -2.4D-05,  2.5D-06, -1.3D-05, r^2= 2.4D+00
   Bfn.  Coefficient  Atom+Function         Bfn.  Coefficient  Atom+Function  
  ----- ------------  ---------------      ----- ------------  ---------------
     4     10.680653  1 N  s                 37     -3.879275  2 H  s          
    52     -3.879301  3 H  s                 67     -3.879241  4 H  s          
    82     -3.879221  5 H  s                 42      0.941746  2 H  px         
    89      0.944189  5 H  pz                58      0.781966  3 H  py         
    73     -0.758069  4 H  py                20      0.752880  1 N  dxx        

 Vector   20  Occ=0.000000D+00  E= 8.143412D-01
              MO Center=  1.4D-01,  5.7D-03,  4.4D-02, r^2= 2.0D+00
   Bfn.  Coefficient  Atom+Function         Bfn.  Coefficient  Atom+Function  
  ----- ------------  ---------------      ----- ------------  ---------------
    59      1.990217  3 H  pz                88     -1.681457  5 H  py         
    72     -1.406126  4 H  px                73      1.403143  4 H  py         
    74     -1.221539  4 H  pz                58      1.095387  3 H  py         
    43     -0.816513  2 H  py                57      0.754599  3 H  px         
    87      0.566726  5 H  px                30      0.478200  1 N  fxyz       

 Vector   21  Occ=0.000000D+00  E= 8.143537D-01
              MO Center= -5.2D-02,  7.0D-02,  4.2D-02, r^2= 2.0D+00
   Bfn.  Coefficient  Atom+Function         Bfn.  Coefficient  Atom+Function  
  ----- ------------  ---------------      ----- ------------  ---------------
    43      1.862236  2 H  py                72      1.803046  4 H  px         
    88     -1.620330  5 H  py                74     -1.397002  4 H  pz         
    44      1.166443  2 H  pz                57     -1.123263  3 H  px         
    59      0.668419  3 H  pz                58     -0.580638  3 H  py         
    27     -0.550445  1 N  fxxy              87     -0.509839  5 H  px         

 Vector   22  Occ=0.000000D+00  E= 8.143574D-01
              MO Center= -8.4D-02, -7.6D-02, -8.6D-02, r^2= 2.0D+00
   Bfn.  Coefficient  Atom+Function         Bfn.  Coefficient  Atom+Function  
  ----- ------------  ---------------      ----- ------------  ---------------
    87      2.250912  5 H  px                44     -1.998150  2 H  pz         
    57     -1.468961  3 H  px                43      1.173602  2 H  py         
    59      1.010486  3 H  pz                58     -0.719906  3 H  py         
    74      0.701558  4 H  pz                42     -0.603503  2 H  px         
    31     -0.512797  1 N  fxzz              92      0.483998  5 H  dxz        

 Vector   23  Occ=0.000000D+00  E= 8.970808D-01
              MO Center=  1.7D-01,  1.2D-01, -1.1D-01, r^2= 2.3D+00
   Bfn.  Coefficient  Atom+Function         Bfn.  Coefficient  Atom+Function  
  ----- ------------  ---------------      ----- ------------  ---------------
    37      6.245669  2 H  s                 11      4.745734  1 N  px         
    52     -4.647685  3 H  s                 67     -3.270086  4 H  s          
     8      3.087177  1 N  px                38      2.510934  2 H  s          
    53     -1.868806  3 H  s                 13      1.747442  1 N  pz         
    82      1.673460  5 H  s                 68     -1.314891  4 H  s          

 Vector   24  Occ=0.000000D+00  E= 8.970869D-01
              MO Center=  4.1D-03, -1.5D-01,  2.5D-01, r^2= 2.3D+00
   Bfn.  Coefficient  Atom+Function         Bfn.  Coefficient  Atom+Function  
  ----- ------------  ---------------      ----- ------------  ---------------
    82      6.754902  5 H  s                 13      4.700586  1 N  pz         
    67     -4.044942  4 H  s                 37     -3.408893  2 H  s          
    10      3.057618  1 N  pz                83      2.715958  5 H  s          
    11     -1.703959  1 N  px                68     -1.626631  4 H  s          
    38     -1.370432  2 H  s                  8     -1.108589  1 N  px         

 Vector   25  Occ=0.000000D+00  E= 8.971066D-01
              MO Center= -1.7D-01,  3.1D-02, -1.3D-01, r^2= 2.3D+00
   Bfn.  Coefficient  Atom+Function         Bfn.  Coefficient  Atom+Function  
  ----- ------------  ---------------      ----- ------------  ---------------
    52      5.786241  3 H  s                 67     -5.339396  4 H  s          
    12      4.997905  1 N  py                 9      3.250516  1 N  py         
    82     -2.673625  5 H  s                 53      2.327031  3 H  s          
    37      2.227004  2 H  s                 68     -2.147331  4 H  s          
    83     -1.075038  5 H  s                 43     -0.971039  2 H  py         

 Vector   26  Occ=0.000000D+00  E= 1.058561D+00
              MO Center= -2.5D-01, -6.7D-02,  1.5D-03, r^2= 1.9D+00
   Bfn.  Coefficient  Atom+Function         Bfn.  Coefficient  Atom+Function  
  ----- ------------  ---------------      ----- ------------  ---------------
    37     13.977467  2 H  s                 82     -6.602679  5 H  s          
    42      6.497416  2 H  px                52     -4.999131  3 H  s          
     8      4.784729  1 N  px                89     -3.121968  5 H  pz         
    67     -2.375913  4 H  s                 58     -2.088238  3 H  py         
    11      2.051940  1 N  px                20      1.976295  1 N  dxx        

 Vector   27  Occ=0.000000D+00  E= 1.058577D+00
              MO Center=  8.4D-02,  8.9D-02, -1.5D-01, r^2= 1.9D+00
   Bfn.  Coefficient  Atom+Function         Bfn.  Coefficient  Atom+Function  
  ----- ------------  ---------------      ----- ------------  ---------------
    82     12.431710  5 H  s                 67     -8.506636  4 H  s          
    52     -6.154830  3 H  s                 89      5.750871  5 H  pz         
    10      4.804677  1 N  pz                73      3.384721  4 H  py         
    58     -2.501890  3 H  py                37      2.229512  2 H  s          
    13      2.060591  1 N  pz                74      2.047752  4 H  pz         

 Vector   28  Occ=0.000000D+00  E= 1.058605D+00
              MO Center=  1.7D-01, -2.2D-02,  1.5D-01, r^2= 1.9D+00
   Bfn.  Coefficient  Atom+Function         Bfn.  Coefficient  Atom+Function  
  ----- ------------  ---------------      ----- ------------  ---------------
    52     11.808247  3 H  s                 67    -11.148801  4 H  s          
     9      5.079481  1 N  py                58      4.421253  3 H  py         
    73      4.012302  4 H  py                57     -3.288418  3 H  px         
    74      3.158986  4 H  pz                21     -2.654707  1 N  dxy        
    24     -2.351245  1 N  dyz               12      2.178716  1 N  py         

 Vector   29  Occ=0.000000D+00  E= 1.264951D+00
              MO Center=  3.0D-02,  7.0D-02, -3.0D-02, r^2= 2.4D+00
   Bfn.  Coefficient  Atom+Function         Bfn.  Coefficient  Atom+Function  
  ----- ------------  ---------------      ----- ------------  ---------------
    82    -12.961070  5 H  s                 67     12.839559  4 H  s          
    52      7.981384  3 H  s                 37     -7.857279  2 H  s          
    89     -5.784064  5 H  pz                74     -4.650603  4 H  pz         
    42     -3.784629  2 H  px                59     -3.516594  3 H  pz         
    57     -3.111401  3 H  px                72     -2.962064  4 H  px         

 Vector   30  Occ=0.000000D+00  E= 1.264955D+00
              MO Center=  7.7D-02, -7.8D-02,  8.8D-02, r^2= 2.4D+00
   Bfn.  Coefficient  Atom+Function         Bfn.  Coefficient  Atom+Function  
  ----- ------------  ---------------      ----- ------------  ---------------
    52     15.863593  3 H  s                 67    -11.254097  4 H  s          
    37     -8.194855  2 H  s                 58      5.640651  3 H  py         
    73      4.798577  4 H  py                57     -4.001967  3 H  px         
    42     -3.821166  2 H  px                82      3.586199  5 H  s          
    88      2.774577  5 H  py                43      2.599564  2 H  py         

 Vector   31  Occ=0.000000D+00  E= 1.264972D+00
              MO Center= -1.1D-01,  7.8D-03, -5.7D-02, r^2= 2.4D+00
   Bfn.  Coefficient  Atom+Function         Bfn.  Coefficient  Atom+Function  
  ----- ------------  ---------------      ----- ------------  ---------------
    37     14.663963  2 H  s                 82    -12.767285  5 H  s          
    67     -7.227954  4 H  s                 52      5.329865  3 H  s          
    42      5.302446  2 H  px                89     -4.492354  5 H  pz         
    73      3.606551  4 H  py                58      3.321137  3 H  py         
    43      3.029963  2 H  py                88      3.017171  5 H  py         

 Vector   32  Occ=0.000000D+00  E= 1.281883D+00
              MO Center= -1.0D-05, -6.7D-06,  4.3D-06, r^2= 1.6D+00
   Bfn.  Coefficient  Atom+Function         Bfn.  Coefficient  Atom+Function  
  ----- ------------  ---------------      ----- ------------  ---------------
    21      3.886155  1 N  dxy               24     -3.880392  1 N  dyz        
    23      2.352604  1 N  dyy               43      1.953231  2 H  py         
    88     -1.923977  5 H  py                74      1.674528  4 H  pz         
    57      1.658349  3 H  px                25     -1.211691  1 N  dzz        
    20     -1.141404  1 N  dxx               73     -0.947219  4 H  py         

 Vector   33  Occ=0.000000D+00  E= 1.281894D+00
              MO Center= -4.4D-05,  8.4D-06, -3.0D-05, r^2= 1.6D+00
   Bfn.  Coefficient  Atom+Function         Bfn.  Coefficient  Atom+Function  
  ----- ------------  ---------------      ----- ------------  ---------------
    22      6.137302  1 N  dxz               44      1.977711  2 H  pz         
    87      1.974142  5 H  px                24     -1.850447  1 N  dyz        
    59     -1.835728  3 H  pz                72     -1.830464  4 H  px         
    21      1.463867  1 N  dxy               23     -1.150553  1 N  dyy        
    73      0.877082  4 H  py                58     -0.811544  3 H  py         

 Vector   34  Occ=0.000000D+00  E= 1.415620D+00
              MO Center=  3.9D-05,  2.9D-06,  1.7D-05, r^2= 2.5D+00
   Bfn.  Coefficient  Atom+Function         Bfn.  Coefficient  Atom+Function  
  ----- ------------  ---------------      ----- ------------  ---------------
     4     12.297041  1 N  s                 20     -2.596678  1 N  dxx        
    23     -2.597826  1 N  dyy               25     -2.596962  1 N  dzz        
    37     -1.581690  2 H  s                 52     -1.576906  3 H  s          
    67     -1.576713  4 H  s                 82     -1.579622  5 H  s          
     2      1.046749  1 N  s                 38     -0.962891  2 H  s          

 Vector   35  Occ=0.000000D+00  E= 2.061734D+00
              MO Center= -5.4D-02,  4.9D-04, -2.4D-02, r^2= 1.4D+00
   Bfn.  Coefficient  Atom+Function         Bfn.  Coefficient  Atom+Function  
  ----- ------------  ---------------      ----- ------------  ---------------
    37      4.487011  2 H  s                 82     -3.545367  5 H  s          
    42      2.362144  2 H  px                 8     -1.878595  1 N  px         
    89     -1.781623  5 H  pz                20     -1.749732  1 N  dxx        
    25      1.517077  1 N  dzz               67     -1.388841  4 H  s          
    10      1.351705  1 N  pz                87      1.349547  5 H  px         

 Vector   36  Occ=0.000000D+00  E= 2.061858D+00
              MO Center=  1.5D-02, -2.4D-02, -1.3D-02, r^2= 1.4D+00
   Bfn.  Coefficient  Atom+Function         Bfn.  Coefficient  Atom+Function  
  ----- ------------  ---------------      ----- ------------  ---------------
    52      3.811134  3 H  s                 82     -3.304397  5 H  s          
    37     -2.406217  2 H  s                 89     -2.016822  5 H  pz         
    67      1.897667  4 H  s                 10      1.802459  1 N  pz         
     8      1.741191  1 N  px                42     -1.748735  2 H  px         
    57     -1.692269  3 H  px                21      1.530526  1 N  dxy        

 Vector   37  Occ=0.000000D+00  E= 2.061870D+00
              MO Center=  3.9D-02,  2.3D-02,  3.7D-02, r^2= 1.4D+00
   Bfn.  Coefficient  Atom+Function         Bfn.  Coefficient  Atom+Function  
  ----- ------------  ---------------      ----- ------------  ---------------
    67      4.536405  4 H  s                 52     -3.374009  3 H  s          
    24     -2.480051  1 N  dyz               73     -2.367382  4 H  py         
     9      2.206293  1 N  py                21     -2.156499  1 N  dxy        
    58     -2.153821  3 H  py                82     -1.623765  5 H  s          
    74     -1.517940  4 H  pz                43     -1.425972  2 H  py         

 Vector   38  Occ=0.000000D+00  E= 2.294481D+00
              MO Center= -5.7D-05, -1.7D-05, -2.5D-05, r^2= 1.5D+00
   Bfn.  Coefficient  Atom+Function         Bfn.  Coefficient  Atom+Function  
  ----- ------------  ---------------      ----- ------------  ---------------
     4      8.799613  1 N  s                 37     -3.648609  2 H  s          
    52     -3.648152  3 H  s                 67     -3.648241  4 H  s          
    82     -3.648455  5 H  s                  3     -1.865648  1 N  s          
    29      0.953101  1 N  fxyy              33      0.855503  1 N  fyyz       
    45      0.835806  2 H  dxx               95      0.838241  5 H  dzz        

 Vector   39  Occ=0.000000D+00  E= 2.800692D+00
              MO Center=  1.5D-01,  5.5D-03,  5.1D-02, r^2= 1.3D+00
   Bfn.  Coefficient  Atom+Function         Bfn.  Coefficient  Atom+Function  
  ----- ------------  ---------------      ----- ------------  ---------------
    30      1.897328  1 N  fxyz              34      1.793719  1 N  fyzz       
    59      1.673851  3 H  pz                88     -1.402118  5 H  py         
    33     -1.391378  1 N  fyyz              94     -1.228058  5 H  dyz        
    72     -1.206819  4 H  px                73      1.180751  4 H  py         
    62     -1.079706  3 H  dxz               27      1.069171  1 N  fxxy       

 Vector   40  Occ=0.000000D+00  E= 2.800747D+00
              MO Center= -4.9D-02,  5.4D-02,  4.8D-02, r^2= 1.3D+00
   Bfn.  Coefficient  Atom+Function         Bfn.  Coefficient  Atom+Function  
  ----- ------------  ---------------      ----- ------------  ---------------
    27      2.262540  1 N  fxxy              34     -1.831157  1 N  fyzz       
    43     -1.644351  2 H  py                72     -1.488026  4 H  px         
    46     -1.462178  2 H  dxy               88      1.381834  5 H  py         
    94      1.186397  5 H  dyz               76      1.179601  4 H  dxy        
    74      1.136129  4 H  pz                29      1.059296  1 N  fxyy       

 Vector   41  Occ=0.000000D+00  E= 2.800762D+00
              MO Center= -9.7D-02, -6.0D-02, -9.9D-02, r^2= 1.3D+00
   Bfn.  Coefficient  Atom+Function         Bfn.  Coefficient  Atom+Function  
  ----- ------------  ---------------      ----- ------------  ---------------
    31      2.045811  1 N  fxzz              87     -1.929871  5 H  px         
    30     -1.770920  1 N  fxyz              44      1.766138  2 H  pz         
    92     -1.757638  5 H  dxz               28     -1.590433  1 N  fxxz       
    47      1.552634  2 H  dxz               57      1.153686  3 H  px         
    27      1.102300  1 N  fxxy              43     -0.850801  2 H  py         

 Vector   42  Occ=0.000000D+00  E= 2.932042D+00
              MO Center=  1.2D-01,  6.2D-02, -4.5D-02, r^2= 1.4D+00
   Bfn.  Coefficient  Atom+Function         Bfn.  Coefficient  Atom+Function  
  ----- ------------  ---------------      ----- ------------  ---------------
     8      5.002352  1 N  px                37      4.993484  2 H  s          
    11      3.839026  1 N  px                52     -2.819156  3 H  s          
    38      1.995183  2 H  s                 87     -1.566962  5 H  px         
    72     -1.488377  4 H  px                67     -1.475490  4 H  s          
    57     -1.226329  3 H  px                53     -1.126836  3 H  s          

 Vector   43  Occ=0.000000D+00  E= 2.932057D+00
              MO Center= -3.7D-02, -7.4D-02,  1.2D-01, r^2= 1.4D+00
   Bfn.  Coefficient  Atom+Function         Bfn.  Coefficient  Atom+Function  
  ----- ------------  ---------------      ----- ------------  ---------------
    10      4.999928  1 N  pz                82      4.951036  5 H  s          
    13      3.837486  1 N  pz                67     -3.023516  4 H  s          
    83      1.978323  5 H  s                 44     -1.552788  2 H  pz         
    59     -1.527131  3 H  pz                68     -1.208306  4 H  s          
    74     -1.193560  4 H  pz                47     -1.103291  2 H  dxz        

 Vector   44  Occ=0.000000D+00  E= 2.932106D+00
              MO Center= -8.6D-02,  1.3D-02, -7.3D-02, r^2= 1.4D+00
   Bfn.  Coefficient  Atom+Function         Bfn.  Coefficient  Atom+Function  
  ----- ------------  ---------------      ----- ------------  ---------------
     9      5.000055  1 N  py                52      4.183631  3 H  s          
    67     -3.916815  4 H  s                 12      3.838182  1 N  py         
    53      1.671762  3 H  s                 68     -1.565148  4 H  s          
    43     -1.539663  2 H  py                88     -1.520027  5 H  py         
    82     -1.291249  5 H  s                 94     -1.123466  5 H  dyz        

 Vector   45  Occ=0.000000D+00  E= 3.189533D+00
              MO Center= -9.5D-02,  2.3D-03, -5.9D-02, r^2= 1.2D+00
   Bfn.  Coefficient  Atom+Function         Bfn.  Coefficient  Atom+Function  
  ----- ------------  ---------------      ----- ------------  ---------------
    37      6.792456  2 H  s                 82     -5.960374  5 H  s          
     8      3.897846  1 N  px                42      3.653522  2 H  px         
    10     -3.288373  1 N  pz                89     -3.241063  5 H  pz         
     9      2.873273  1 N  py                20      2.417158  1 N  dxx        
    25     -2.236615  1 N  dzz               67     -2.095186  4 H  s          

 Vector   46  Occ=0.000000D+00  E= 3.189554D+00
              MO Center=  4.9D-02,  1.2D-01,  3.3D-02, r^2= 1.2D+00
   Bfn.  Coefficient  Atom+Function         Bfn.  Coefficient  Atom+Function  
  ----- ------------  ---------------      ----- ------------  ---------------
    67      7.779648  4 H  s                 82     -4.749149  5 H  s          
    10     -4.511299  1 N  pz                24      3.563699  1 N  dyz        
     9     -3.532067  1 N  py                73     -3.381217  4 H  py         
    89     -2.228347  5 H  pz                74     -2.071706  4 H  pz         
    52     -1.553325  3 H  s                 21      1.513932  1 N  dxy        

 Vector   47  Occ=0.000000D+00  E= 3.189558D+00
              MO Center=  4.6D-02, -1.3D-01,  2.6D-02, r^2= 1.2D+00
   Bfn.  Coefficient  Atom+Function         Bfn.  Coefficient  Atom+Function  
  ----- ------------  ---------------      ----- ------------  ---------------
    52      7.857587  3 H  s                  8     -4.198873  1 N  px         
    37     -4.175072  2 H  s                  9      3.678889  1 N  py         
    58      3.523069  3 H  py                21     -3.418333  1 N  dxy        
    82     -2.769377  5 H  s                 57     -2.115586  3 H  px         
    42     -1.908170  2 H  px                10     -1.762133  1 N  pz         

 Vector   48  Occ=0.000000D+00  E= 3.566918D+00
              MO Center=  3.5D-05,  2.4D-05, -1.7D-05, r^2= 1.1D+00
   Bfn.  Coefficient  Atom+Function         Bfn.  Coefficient  Atom+Function  
  ----- ------------  ---------------      ----- ------------  ---------------
    22      4.620555  1 N  dxz               87      1.317766  5 H  px         
    44      1.309765  2 H  pz                23     -1.157724  1 N  dyy        
    59     -1.086866  3 H  pz                72     -1.091438  4 H  px         
    64     -0.904375  3 H  dyz               76      0.871225  4 H  dxy        
    24     -0.850432  1 N  dyz               20      0.726642  1 N  dxx        

 Vector   49  Occ=0.000000D+00  E= 3.566922D+00
              MO Center=  1.2D-04, -2.2D-07,  8.4D-05, r^2= 1.1D+00
   Bfn.  Coefficient  Atom+Function         Bfn.  Coefficient  Atom+Function  
  ----- ------------  ---------------      ----- ------------  ---------------
    24     -3.101817  1 N  dyz               21      3.054727  1 N  dxy        
    23      1.580618  1 N  dyy               43      1.302651  2 H  py         
    88     -1.292641  5 H  py                46      1.043823  2 H  dxy        
    74      1.040531  4 H  pz                57      1.015149  3 H  px         
    94     -0.997711  5 H  dyz               25     -0.843949  1 N  dzz        

 Vector   50  Occ=0.000000D+00  E= 3.695651D+00
              MO Center=  7.0D-02,  7.9D-02, -5.4D-02, r^2= 9.5D-01
   Bfn.  Coefficient  Atom+Function         Bfn.  Coefficient  Atom+Function  
  ----- ------------  ---------------      ----- ------------  ---------------
    91      1.499432  5 H  dxy               49     -1.086370  2 H  dyz        
    34      1.067745  1 N  fyzz              79      0.994605  4 H  dyz        
    76     -0.878081  4 H  dxy               61     -0.822722  3 H  dxy        
    62     -0.713069  3 H  dxz               27     -0.689903  1 N  fxxy       
    75      0.598844  4 H  dxx               33     -0.481657  1 N  fyyz       

 Vector   51  Occ=0.000000D+00  E= 3.695691D+00
              MO Center=  8.0D-03, -8.6D-02,  1.2D-01, r^2= 9.4D-01
   Bfn.  Coefficient  Atom+Function         Bfn.  Coefficient  Atom+Function  
  ----- ------------  ---------------      ----- ------------  ---------------
    77      1.393390  4 H  dxz               62     -1.258403  3 H  dxz        
    49      0.965226  2 H  dyz               27      0.953858  1 N  fxxy       
    64     -0.943516  3 H  dyz               48     -0.693641  2 H  dyy        
    76     -0.599517  4 H  dxy               50      0.568273  2 H  dzz        
    61      0.523643  3 H  dxy               31      0.482369  1 N  fxzz       

 Vector   52  Occ=0.000000D+00  E= 3.695791D+00
              MO Center= -7.6D-02,  7.8D-03, -6.6D-02, r^2= 9.5D-01
   Bfn.  Coefficient  Atom+Function         Bfn.  Coefficient  Atom+Function  
  ----- ------------  ---------------      ----- ------------  ---------------
    30      1.150189  1 N  fxyz              77      1.098182  4 H  dxz        
    62     -1.055645  3 H  dxz               47     -1.042923  2 H  dxz        
    92      1.003971  5 H  dxz               49      0.882778  2 H  dyz        
    31     -0.773556  1 N  fxzz              91      0.730858  5 H  dxy        
    28      0.712181  1 N  fxxz              79     -0.667162  4 H  dyz        

 Vector   53  Occ=0.000000D+00  E= 3.698606D+00
              MO Center= -6.6D-04, -9.1D-04,  3.6D-04, r^2= 8.8D-01
   Bfn.  Coefficient  Atom+Function         Bfn.  Coefficient  Atom+Function  
  ----- ------------  ---------------      ----- ------------  ---------------
    22      5.049951  1 N  dxz               24     -1.316190  1 N  dyz        
    44      1.205327  2 H  pz                87      1.206427  5 H  px         
    59     -1.076703  3 H  pz                72     -1.076183  4 H  px         
    23     -1.057924  1 N  dyy               21      1.000160  1 N  dxy        
    41      0.744389  2 H  pz                84      0.741444  5 H  px         

 Vector   54  Occ=0.000000D+00  E= 3.698634D+00
              MO Center= -1.5D-03,  1.2D-04, -1.1D-03, r^2= 8.8D-01
   Bfn.  Coefficient  Atom+Function         Bfn.  Coefficient  Atom+Function  
  ----- ------------  ---------------      ----- ------------  ---------------
    21      3.245416  1 N  dxy               24     -3.260487  1 N  dyz        
    23      1.862499  1 N  dyy               43      1.192738  2 H  py         
    88     -1.177898  5 H  py                74      0.997707  4 H  pz         
    57      0.983191  3 H  px                25     -0.970911  1 N  dzz        
    20     -0.892458  1 N  dxx               40      0.737834  2 H  py         

 Vector   55  Occ=0.000000D+00  E= 3.810023D+00
              MO Center= -9.0D-05, -8.0D-06, -4.1D-05, r^2= 1.3D+00
   Bfn.  Coefficient  Atom+Function         Bfn.  Coefficient  Atom+Function  
  ----- ------------  ---------------      ----- ------------  ---------------
     3      9.650770  1 N  s                  4      8.339862  1 N  s          
    37     -4.611048  2 H  s                 52     -4.595253  3 H  s          
    67     -4.594290  4 H  s                 82     -4.604111  5 H  s          
    61      1.869847  3 H  dxy               79     -1.840172  4 H  dyz        
    42     -1.436339  2 H  px                89     -1.437380  5 H  pz         

 Vector   56  Occ=0.000000D+00  E= 3.852822D+00
              MO Center=  1.0D-02, -3.3D-02, -4.0D-03, r^2= 1.2D+00
   Bfn.  Coefficient  Atom+Function         Bfn.  Coefficient  Atom+Function  
  ----- ------------  ---------------      ----- ------------  ---------------
    52      8.541782  3 H  s                 82     -5.943194  5 H  s          
    37     -5.728331  2 H  s                 67      3.145241  4 H  s          
    42     -2.794442  2 H  px                57     -2.588625  3 H  px         
    89     -2.594220  5 H  pz                58      2.352650  3 H  py         
    31      2.127853  1 N  fxzz              28      1.800764  1 N  fxxz       

 Vector   57  Occ=0.000000D+00  E= 3.852829D+00
              MO Center=  3.2D-02,  3.1D-02,  2.6D-02, r^2= 1.2D+00
   Bfn.  Coefficient  Atom+Function         Bfn.  Coefficient  Atom+Function  
  ----- ------------  ---------------      ----- ------------  ---------------
    67      9.597955  4 H  s                 52     -6.037358  3 H  s          
    82     -4.616748  5 H  s                 73     -3.371626  4 H  py         
    58     -2.706214  3 H  py                74     -2.519562  4 H  pz         
    30     -2.392062  1 N  fxyz              89     -2.287552  5 H  pz         
    28      1.613497  1 N  fxxz              75     -1.524823  4 H  dxx        

 Vector   58  Occ=0.000000D+00  E= 3.852891D+00
              MO Center= -4.3D-02,  1.7D-03, -2.2D-02, r^2= 1.2D+00
   Bfn.  Coefficient  Atom+Function         Bfn.  Coefficient  Atom+Function  
  ----- ------------  ---------------      ----- ------------  ---------------
    37      8.901730  2 H  s                 82     -7.523013  5 H  s          
    42      3.438336  2 H  px                67     -3.361237  4 H  s          
    89     -2.839406  5 H  pz                52      1.974355  3 H  s          
    29     -1.769880  1 N  fxyy              33      1.776391  1 N  fyyz       
    73      1.681884  4 H  py                72      1.501870  4 H  px         

 Vector   59  Occ=0.000000D+00  E= 4.356015D+00
              MO Center=  1.1D-04,  1.2D-05,  4.7D-05, r^2= 1.1D+00
   Bfn.  Coefficient  Atom+Function         Bfn.  Coefficient  Atom+Function  
  ----- ------------  ---------------      ----- ------------  ---------------
     3     11.389197  1 N  s                 20      5.915797  1 N  dxx        
    23      5.917717  1 N  dyy               25      5.916695  1 N  dzz        
    37     -3.913988  2 H  s                 52     -3.923215  3 H  s          
    67     -3.923743  4 H  s                 82     -3.917973  5 H  s          
     4     -3.451673  1 N  s                 42     -1.399389  2 H  px         

 Vector   60  Occ=0.000000D+00  E= 4.462880D+00
              MO Center=  4.8D-02,  4.2D-03,  5.2D-02, r^2= 1.2D+00
   Bfn.  Coefficient  Atom+Function         Bfn.  Coefficient  Atom+Function  
  ----- ------------  ---------------      ----- ------------  ---------------
    67     -6.707112  4 H  s                 52      6.375793  3 H  s          
    37      3.528278  2 H  s                 82     -3.194123  5 H  s          
    21      2.685958  1 N  dxy               24      2.542823  1 N  dyz        
    73      2.450731  4 H  py                58      2.424998  3 H  py         
    30     -2.343775  1 N  fxyz               9      2.254914  1 N  py         

 Vector   61  Occ=0.000000D+00  E= 4.462921D+00
              MO Center=  8.4D-03,  6.5D-02, -9.2D-02, r^2= 1.2D+00
   Bfn.  Coefficient  Atom+Function         Bfn.  Coefficient  Atom+Function  
  ----- ------------  ---------------      ----- ------------  ---------------
    82      8.233099  5 H  s                 67     -5.245565  4 H  s          
    37     -3.560058  2 H  s                 89      3.122661  5 H  pz         
    24      2.899985  1 N  dyz               10      2.190021  1 N  pz         
    25     -2.147300  1 N  dzz               30     -1.916361  1 N  fxyz       
    74      1.838819  4 H  pz                79     -1.618400  4 H  dyz        

 Vector   62  Occ=0.000000D+00  E= 4.462942D+00
              MO Center= -5.6D-02, -6.9D-02,  4.0D-02, r^2= 1.2D+00
   Bfn.  Coefficient  Atom+Function         Bfn.  Coefficient  Atom+Function  
  ----- ------------  ---------------      ----- ------------  ---------------
    37      7.493937  2 H  s                 52     -6.341085  3 H  s          
    67     -2.946594  4 H  s                 42      2.931686  2 H  px         
    21     -2.603747  1 N  dxy                8      2.182148  1 N  px         
    22      1.991113  1 N  dxz               57      1.978299  3 H  px         
    23      1.961729  1 N  dyy               82      1.804321  5 H  s          

 Vector   63  Occ=0.000000D+00  E= 4.599937D+00
              MO Center= -4.7D-05,  1.2D-05, -4.0D-05, r^2= 1.1D+00
   Bfn.  Coefficient  Atom+Function         Bfn.  Coefficient  Atom+Function  
  ----- ------------  ---------------      ----- ------------  ---------------
    21      2.774347  1 N  dxy               24     -2.784958  1 N  dyz        
    23      1.605174  1 N  dyy               49      1.190195  2 H  dyz        
    91     -1.190781  5 H  dxy               79      1.163786  4 H  dyz        
    61     -1.156111  3 H  dxy               64      1.156462  3 H  dyz        
    76     -1.153222  4 H  dxy               94      1.096927  5 H  dyz        

 Vector   64  Occ=0.000000D+00  E= 4.599954D+00
              MO Center= -7.3D-06, -1.6D-05,  1.4D-05, r^2= 1.1D+00
   Bfn.  Coefficient  Atom+Function         Bfn.  Coefficient  Atom+Function  
  ----- ------------  ---------------      ----- ------------  ---------------
    22      4.324266  1 N  dxz               62     -1.815581  3 H  dxz        
    77     -1.815185  4 H  dxz               47     -1.763277  2 H  dxz        
    92     -1.760665  5 H  dxz               24     -1.151668  1 N  dyz        
    23     -0.893482  1 N  dyy               21      0.880622  1 N  dxy        
    16     -0.823490  1 N  dxz               20      0.589580  1 N  dxx        

 Vector   65  Occ=0.000000D+00  E= 4.956676D+00
              MO Center=  1.5D-04,  6.7D-05,  5.7D-05, r^2= 1.0D+00
   Bfn.  Coefficient  Atom+Function         Bfn.  Coefficient  Atom+Function  
  ----- ------------  ---------------      ----- ------------  ---------------
     4      9.317842  1 N  s                 37     -7.486261  2 H  s          
    52     -7.485564  3 H  s                 67     -7.485564  4 H  s          
    82     -7.485968  5 H  s                 20      3.770259  1 N  dxx        
    23      3.769810  1 N  dyy               25      3.770060  1 N  dzz        
     3      3.136244  1 N  s                 29      1.224559  1 N  fxyy       

 Vector   66  Occ=0.000000D+00  E= 5.103869D+00
              MO Center=  1.7D-02, -8.7D-04,  8.5D-03, r^2= 9.2D-01
   Bfn.  Coefficient  Atom+Function         Bfn.  Coefficient  Atom+Function  
  ----- ------------  ---------------      ----- ------------  ---------------
     8      4.467998  1 N  px                 9      3.805991  1 N  py         
    10     -3.485568  1 N  pz                26     -2.339479  1 N  fxxx       
    34     -2.247719  1 N  fyzz              27     -2.146771  1 N  fxxy       
    35      1.867490  1 N  fzzz              31     -1.566046  1 N  fxzz       
    28      1.524264  1 N  fxxz              32     -1.200224  1 N  fyyy       

 Vector   67  Occ=0.000000D+00  E= 5.103969D+00
              MO Center= -1.3D-02,  1.0D-02, -1.3D-02, r^2= 9.2D-01
   Bfn.  Coefficient  Atom+Function         Bfn.  Coefficient  Atom+Function  
  ----- ------------  ---------------      ----- ------------  ---------------
     9      5.632485  1 N  py                 8     -3.447737  1 N  px         
    30     -2.613865  1 N  fxyz              32     -2.570336  1 N  fyyy       
    27     -2.140697  1 N  fxxy              29      2.020233  1 N  fxyy       
    34     -1.979435  1 N  fyzz              10      1.730403  1 N  pz         
    26      1.588372  1 N  fxxx              43     -1.367167  2 H  py         

 Vector   68  Occ=0.000000D+00  E= 5.103975D+00
              MO Center= -4.1D-03, -9.2D-03,  4.0D-03, r^2= 9.2D-01
   Bfn.  Coefficient  Atom+Function         Bfn.  Coefficient  Atom+Function  
  ----- ------------  ---------------      ----- ------------  ---------------
    10      5.608953  1 N  pz                 8      3.840757  1 N  px         
    33     -3.127651  1 N  fyyz              35     -2.601451  1 N  fzzz       
    29     -2.551561  1 N  fxyy              26     -1.639166  1 N  fxxx       
    44     -1.361646  2 H  pz                59     -1.284869  3 H  pz         
    13      1.169545  1 N  pz                74     -1.154249  4 H  pz         

 Vector   69  Occ=0.000000D+00  E= 5.675863D+00
              MO Center=  4.9D-02, -4.7D-03,  2.9D-02, r^2= 8.7D-01
   Bfn.  Coefficient  Atom+Function         Bfn.  Coefficient  Atom+Function  
  ----- ------------  ---------------      ----- ------------  ---------------
    30      2.276600  1 N  fxyz              64     -1.740887  3 H  dyz        
    76     -1.570368  4 H  dxy               33     -1.214104  1 N  fyyz       
    34      1.046091  1 N  fyzz              91      1.042659  5 H  dxy        
    59     -1.008652  3 H  pz                27      0.999339  1 N  fxxy       
    31     -0.971579  1 N  fxzz              72      0.931589  4 H  px         

 Vector   70  Occ=0.000000D+00  E= 5.675947D+00
              MO Center= -2.5D-02,  7.3D-02, -4.9D-02, r^2= 8.7D-01
   Bfn.  Coefficient  Atom+Function         Bfn.  Coefficient  Atom+Function  
  ----- ------------  ---------------      ----- ------------  ---------------
    34     -1.595742  1 N  fyzz              94     -1.504280  5 H  dyz        
    28      1.452243  1 N  fxxz              31     -1.443013  1 N  fxzz       
    92     -1.303531  5 H  dxz               47      1.271636  2 H  dxz        
    80      1.272370  4 H  dzz               44      0.976361  2 H  pz         
    74     -0.900703  4 H  pz                87     -0.879696  5 H  px         

 Vector   71  Occ=0.000000D+00  E= 5.675981D+00
              MO Center= -2.4D-02, -6.9D-02,  2.0D-02, r^2= 8.7D-01
   Bfn.  Coefficient  Atom+Function         Bfn.  Coefficient  Atom+Function  
  ----- ------------  ---------------      ----- ------------  ---------------
    27      2.286242  1 N  fxxy              46      2.075911  2 H  dxy        
    34     -1.394706  1 N  fyzz              60      1.290526  3 H  dxx        
    94     -1.230730  5 H  dyz               43      1.118106  2 H  py         
    91     -0.938694  5 H  dxy               76     -0.923789  4 H  dxy        
    57     -0.892456  3 H  px                65     -0.836017  3 H  dzz        

 Vector   72  Occ=0.000000D+00  E= 6.215397D+00
              MO Center=  4.2D-02,  1.2D-02, -1.5D-03, r^2= 8.4D-01
   Bfn.  Coefficient  Atom+Function         Bfn.  Coefficient  Atom+Function  
  ----- ------------  ---------------      ----- ------------  ---------------
    37      5.507236  2 H  s                 33      4.556901  1 N  fyyz       
    31     -4.519943  1 N  fxzz               8      3.762665  1 N  px         
    30     -3.046636  1 N  fxyz              82     -2.468111  5 H  s          
    34      2.372154  1 N  fyzz              29     -2.156693  1 N  fxyy       
    42      2.114325  2 H  px                52     -2.064944  3 H  s          

 Vector   73  Occ=0.000000D+00  E= 6.215444D+00
              MO Center= -1.6D-02, -6.8D-03,  2.9D-02, r^2= 8.4D-01
   Bfn.  Coefficient  Atom+Function         Bfn.  Coefficient  Atom+Function  
  ----- ------------  ---------------      ----- ------------  ---------------
    28      5.751706  1 N  fxxz              82     -5.011310  5 H  s          
    29     -4.331276  1 N  fxyy              10     -3.707069  1 N  pz         
    31      3.522300  1 N  fxzz              52      2.956703  3 H  s          
    67      2.715713  4 H  s                 62     -1.868840  3 H  dxz        
    89     -1.863390  5 H  pz                13     -1.468815  1 N  pz         

 Vector   74  Occ=0.000000D+00  E= 6.215504D+00
              MO Center= -2.6D-02, -5.0D-03, -2.8D-02, r^2= 8.4D-01
   Bfn.  Coefficient  Atom+Function         Bfn.  Coefficient  Atom+Function  
  ----- ------------  ---------------      ----- ------------  ---------------
    30      9.112969  1 N  fxyz              67     -4.787336  4 H  s          
    52      4.272407  3 H  s                  9      3.906396  1 N  py         
    33      2.915987  1 N  fyyz              29     -2.635852  1 N  fxyy       
    49      2.346386  2 H  dyz               28     -2.316552  1 N  fxxz       
    91      2.309689  5 H  dxy               24     -2.048515  1 N  dyz        

 Vector   75  Occ=0.000000D+00  E= 6.589038D+00
              MO Center=  3.4D-03,  3.2D-02, -1.1D-04, r^2= 8.8D-01
   Bfn.  Coefficient  Atom+Function         Bfn.  Coefficient  Atom+Function  
  ----- ------------  ---------------      ----- ------------  ---------------
    28      3.860474  1 N  fxxz              31      3.326209  1 N  fxzz       
    35      2.704534  1 N  fzzz              26      2.521160  1 N  fxxx       
    67      2.418401  4 H  s                 86     -2.275965  5 H  pz         
    33      2.224473  1 N  fyyz              82     -2.174259  5 H  s          
    79      2.118005  4 H  dyz               39     -2.039385  2 H  px         

 Vector   76  Occ=0.000000D+00  E= 6.589062D+00
              MO Center= -7.0D-02, -1.2D-02, -4.2D-02, r^2= 8.7D-01
   Bfn.  Coefficient  Atom+Function         Bfn.  Coefficient  Atom+Function  
  ----- ------------  ---------------      ----- ------------  ---------------
    31      3.394829  1 N  fxzz              29      3.199202  1 N  fxyy       
    33     -2.985301  1 N  fyyz              37     -2.850196  2 H  s          
    28     -2.774699  1 N  fxxz              26      2.557243  1 N  fxxx       
    39     -2.553134  2 H  px                82      2.463616  5 H  s          
    42     -2.355183  2 H  px                35     -2.274917  1 N  fzzz       

 Vector   77  Occ=0.000000D+00  E= 6.589150D+00
              MO Center=  6.5D-02, -2.0D-02,  4.2D-02, r^2= 8.7D-01
   Bfn.  Coefficient  Atom+Function         Bfn.  Coefficient  Atom+Function  
  ----- ------------  ---------------      ----- ------------  ---------------
    32      3.850479  1 N  fyyy              27      3.694939  1 N  fxxy       
    34      3.702255  1 N  fyzz              52     -2.849876  3 H  s          
    55     -2.802624  3 H  py                70     -2.642621  4 H  py         
    67      2.443870  4 H  s                 58     -2.239494  3 H  py         
    61      2.243146  3 H  dxy               73     -1.990957  4 H  py         

 Vector   78  Occ=0.000000D+00  E= 6.603994D+00
              MO Center= -2.1D-02,  2.2D-03, -1.9D-02, r^2= 8.0D-01
   Bfn.  Coefficient  Atom+Function         Bfn.  Coefficient  Atom+Function  
  ----- ------------  ---------------      ----- ------------  ---------------
    30      8.177754  1 N  fxyz              31     -7.365608  1 N  fxzz       
    28      6.557435  1 N  fxxz              84      4.122673  5 H  px         
    41     -4.101664  2 H  pz                47     -2.406409  2 H  dxz        
    92      2.381415  5 H  dxz               33     -2.316088  1 N  fyyz       
    29      2.210281  1 N  fxyy              69     -2.014264  4 H  px         

 Vector   79  Occ=0.000000D+00  E= 6.604160D+00
              MO Center= -1.0D-02, -9.4D-03,  1.7D-02, r^2= 8.0D-01
   Bfn.  Coefficient  Atom+Function         Bfn.  Coefficient  Atom+Function  
  ----- ------------  ---------------      ----- ------------  ---------------
    27      9.649931  1 N  fxxy              34     -4.666849  1 N  fyzz       
    40     -4.028354  2 H  py                29      3.887614  1 N  fxyy       
    69     -3.147216  4 H  px                54      3.061859  3 H  px         
    85      2.043001  5 H  py                26     -1.838200  1 N  fxxx       
    55      1.787708  3 H  py                32     -1.686095  1 N  fyyy       

 Vector   80  Occ=0.000000D+00  E= 6.604271D+00
              MO Center=  3.2D-02,  7.2D-03,  2.0D-03, r^2= 8.0D-01
   Bfn.  Coefficient  Atom+Function         Bfn.  Coefficient  Atom+Function  
  ----- ------------  ---------------      ----- ------------  ---------------
    34      8.013085  1 N  fyzz              30      5.048188  1 N  fxyz       
    33     -5.020603  1 N  fyyz              85     -3.543850  5 H  py         
    32     -3.453365  1 N  fyyy              56      3.415808  3 H  pz         
    71     -2.841096  4 H  pz                70      2.633036  4 H  py         
    62     -2.286377  3 H  dxz               27      2.263937  1 N  fxxy       

 Vector   81  Occ=0.000000D+00  E= 7.885638D+00
              MO Center=  1.8D-05,  7.3D-07,  1.2D-05, r^2= 6.4D-01
   Bfn.  Coefficient  Atom+Function         Bfn.  Coefficient  Atom+Function  
  ----- ------------  ---------------      ----- ------------  ---------------
    16      4.772056  1 N  dxz               22      4.072392  1 N  dxz        
    84      1.642980  5 H  px                41      1.621993  2 H  pz         
    17     -1.475957  1 N  dyy               92      1.279930  5 H  dxz        
    23     -1.251959  1 N  dyy               47      1.225403  2 H  dxz        
    69     -1.210687  4 H  px                56     -1.195903  3 H  pz         

 Vector   82  Occ=0.000000D+00  E= 7.885659D+00
              MO Center=  9.8D-06,  1.3D-05,  2.6D-07, r^2= 6.4D-01
   Bfn.  Coefficient  Atom+Function         Bfn.  Coefficient  Atom+Function  
  ----- ------------  ---------------      ----- ------------  ---------------
    18     -3.376788  1 N  dyz               15      3.278399  1 N  dxy        
    24     -2.881153  1 N  dyz               21      2.797602  1 N  dxy        
    40      1.622139  2 H  py                85     -1.618860  5 H  py         
    17      1.445212  1 N  dyy               46      1.330711  2 H  dxy        
    94     -1.303628  5 H  dyz               23      1.229406  1 N  dyy        

 Vector   83  Occ=0.000000D+00  E= 7.900833D+00
              MO Center= -2.7D-04, -1.4D-05, -1.3D-04, r^2= 8.5D-01
   Bfn.  Coefficient  Atom+Function         Bfn.  Coefficient  Atom+Function  
  ----- ------------  ---------------      ----- ------------  ---------------
     3     32.480289  1 N  s                 37    -13.448862  2 H  s          
    52    -13.436259  3 H  s                 67    -13.436226  4 H  s          
    82    -13.443804  5 H  s                  4     10.613602  1 N  s          
    20      9.853128  1 N  dxx               23      9.852207  1 N  dyy        
    25      9.852088  1 N  dzz               39     -3.705417  2 H  px         

 Vector   84  Occ=0.000000D+00  E= 8.087675D+00
              MO Center= -1.5D-02, -9.1D-03,  7.3D-03, r^2= 7.8D-01
   Bfn.  Coefficient  Atom+Function         Bfn.  Coefficient  Atom+Function  
  ----- ------------  ---------------      ----- ------------  ---------------
     8     11.192490  1 N  px                31      5.695265  1 N  fxzz       
    33     -4.366771  1 N  fyyz              37      4.068082  2 H  s          
    28      3.405075  1 N  fxxz              84     -2.969573  5 H  px         
    50      2.823469  2 H  dzz               30      2.756298  1 N  fxyz       
    69     -2.722673  4 H  px                52     -2.577028  3 H  s          

 Vector   85  Occ=0.000000D+00  E= 8.087734D+00
              MO Center=  3.7D-03,  1.0D-02, -1.7D-02, r^2= 7.8D-01
   Bfn.  Coefficient  Atom+Function         Bfn.  Coefficient  Atom+Function  
  ----- ------------  ---------------      ----- ------------  ---------------
    10     11.182213  1 N  pz                28      5.259773  1 N  fxxz       
    30     -4.950492  1 N  fxyz              29     -4.319981  1 N  fxyy       
    82      4.187245  5 H  s                 56     -2.890532  3 H  pz         
    18     -2.851544  1 N  dyz               41     -2.850293  2 H  pz         
    90      2.637863  5 H  dxx               67     -2.464197  4 H  s          

 Vector   86  Occ=0.000000D+00  E= 8.087940D+00
              MO Center=  1.2D-02, -1.4D-03,  1.0D-02, r^2= 7.8D-01
   Bfn.  Coefficient  Atom+Function         Bfn.  Coefficient  Atom+Function  
  ----- ------------  ---------------      ----- ------------  ---------------
     9     11.236267  1 N  py                30     -8.739788  1 N  fxyz       
    29      3.990955  1 N  fxyy              33     -3.683470  1 N  fyyz       
    52      3.465747  3 H  s                 15     -3.307507  1 N  dxy        
    67     -3.293880  4 H  s                 18     -2.910481  1 N  dyz        
    40     -2.867322  2 H  py                85     -2.828646  5 H  py         

 Vector   87  Occ=0.000000D+00  E= 1.163349D+01
              MO Center=  1.1D-04,  2.7D-06,  5.3D-05, r^2= 4.9D-01
   Bfn.  Coefficient  Atom+Function         Bfn.  Coefficient  Atom+Function  
  ----- ------------  ---------------      ----- ------------  ---------------
     3     12.765887  1 N  s                  2    -10.105903  1 N  s          
    20      6.888909  1 N  dxx               23      6.888104  1 N  dyy        
    25      6.888622  1 N  dzz               37     -5.991490  2 H  s          
    52     -5.991351  3 H  s                 67     -5.990965  4 H  s          
    82     -5.991187  5 H  s                 14      5.012014  1 N  dxx        

 Vector   88  Occ=0.000000D+00  E= 1.185732D+01
              MO Center= -2.3D-03,  8.5D-05, -1.3D-03, r^2= 5.2D-01
   Bfn.  Coefficient  Atom+Function         Bfn.  Coefficient  Atom+Function  
  ----- ------------  ---------------      ----- ------------  ---------------
     8      9.283040  1 N  px                 9      8.023221  1 N  py         
    10     -7.530212  1 N  pz                37      6.230307  2 H  s          
    82     -5.367240  5 H  s                 26     -4.095428  1 N  fxxx       
    34     -3.750440  1 N  fyzz              27     -3.665636  1 N  fxxy       
    31     -3.461034  1 N  fxzz              35      3.349154  1 N  fzzz       

 Vector   89  Occ=0.000000D+00  E= 1.185744D+01
              MO Center=  1.6D-03,  2.7D-03,  1.0D-03, r^2= 5.2D-01
   Bfn.  Coefficient  Atom+Function         Bfn.  Coefficient  Atom+Function  
  ----- ------------  ---------------      ----- ------------  ---------------
    10     10.426679  1 N  pz                 9      9.927127  1 N  py         
    67     -7.098717  4 H  s                 33     -4.709929  1 N  fyyz       
    35     -4.315601  1 N  fzzz              32     -4.127479  1 N  fyyy       
    82      4.147157  5 H  s                 27     -3.788377  1 N  fxxy       
    34     -3.656656  1 N  fyzz              28     -3.167446  1 N  fxxz       

 Vector   90  Occ=0.000000D+00  E= 1.185746D+01
              MO Center=  6.3D-04, -2.7D-03,  2.2D-04, r^2= 5.2D-01
   Bfn.  Coefficient  Atom+Function         Bfn.  Coefficient  Atom+Function  
  ----- ------------  ---------------      ----- ------------  ---------------
     8     11.005146  1 N  px                52     -6.777335  3 H  s          
     9     -6.657731  1 N  py                10      6.470613  1 N  pz         
    29     -5.292854  1 N  fxyy              26     -4.493836  1 N  fxxx       
    37      4.292030  2 H  s                 82      3.347903  5 H  s          
    31     -3.204315  1 N  fxzz              33     -2.990776  1 N  fyyz       

 Vector   91  Occ=0.000000D+00  E= 1.353686D+01
              MO Center= -1.3D-05, -1.7D-06, -6.0D-06, r^2= 8.7D-01
   Bfn.  Coefficient  Atom+Function         Bfn.  Coefficient  Atom+Function  
  ----- ------------  ---------------      ----- ------------  ---------------
     4     16.944798  1 N  s                 37    -15.444444  2 H  s          
    52    -15.440656  3 H  s                 67    -15.439708  4 H  s          
    82    -15.442330  5 H  s                  3     10.668842  1 N  s          
    20      9.079895  1 N  dxx               23      9.079065  1 N  dyy        
    25      9.079745  1 N  dzz               36      4.715945  2 H  s          

 Vector   92  Occ=0.000000D+00  E= 1.543610D+01
              MO Center=  5.2D-02,  1.4D-01, -1.4D-02, r^2= 9.2D-01
   Bfn.  Coefficient  Atom+Function         Bfn.  Coefficient  Atom+Function  
  ----- ------------  ---------------      ----- ------------  ---------------
    10     24.357304  1 N  pz                67    -23.297497  4 H  s          
    82     19.266466  5 H  s                  9     11.518308  1 N  py         
    66     -7.059333  4 H  s                 28     -6.596699  1 N  fxxz       
     8      6.371808  1 N  px                24      6.289431  1 N  dyz        
    89      6.193742  5 H  pz                81      5.839715  5 H  s          

 Vector   93  Occ=0.000000D+00  E= 1.543621D+01
              MO Center= -1.0D-01,  8.3D-03, -3.8D-02, r^2= 9.3D-01
   Bfn.  Coefficient  Atom+Function         Bfn.  Coefficient  Atom+Function  
  ----- ------------  ---------------      ----- ------------  ---------------
    37     21.718001  2 H  s                  8     17.830687  1 N  px         
    82    -17.409676  5 H  s                  9     16.963186  1 N  py         
    10    -12.684672  1 N  pz                67    -10.688889  4 H  s          
    42      6.672092  2 H  px                36      6.582415  2 H  s          
    52      6.373733  3 H  s                 89     -5.312257  5 H  pz         

 Vector   94  Occ=0.000000D+00  E= 1.543622D+01
              MO Center=  4.8D-02, -1.5D-01,  5.2D-02, r^2= 9.1D-01
   Bfn.  Coefficient  Atom+Function         Bfn.  Coefficient  Atom+Function  
  ----- ------------  ---------------      ----- ------------  ---------------
    52     25.626452  3 H  s                  8    -20.197280  1 N  px         
     9     18.608956  1 N  py                37    -14.482555  2 H  s          
    51      7.765175  3 H  s                 21      6.821163  1 N  dxy        
    58      6.573581  3 H  py                67     -6.349630  4 H  s          
    31      5.555344  1 N  fxzz              82     -4.785423  5 H  s          

 Vector   95  Occ=0.000000D+00  E= 4.810976D+01
              MO Center=  2.4D-06, -1.6D-06,  1.6D-06, r^2= 4.2D-01
   Bfn.  Coefficient  Atom+Function         Bfn.  Coefficient  Atom+Function  
  ----- ------------  ---------------      ----- ------------  ---------------
     2     35.516166  1 N  s                  1     17.879913  1 N  s          
     4     12.356493  1 N  s                 37    -10.438894  2 H  s          
    52    -10.440621  3 H  s                 67    -10.440028  4 H  s          
    82    -10.439198  5 H  s                 20      3.461405  1 N  dxx        
    23      3.462135  1 N  dyy               25      3.461642  1 N  dzz        


 center of mass
 --------------
 x =   0.00000648 y =  -0.00000000 z =   0.00000310

 moments of inertia (a.u.)
 ------------------
           2.832521394825          -0.000012864290          -0.000000000000
          -0.000012864290           2.832241174170           0.000000000000
          -0.000000000000           0.000000000000           2.832431450044

     Multipole analysis of the density
     ---------------------------------

     L   x y z        total         alpha         beta         nuclear
     -   - - -        -----         -----         ----         -------
     0   0 0 0      1.000000     -5.000000     -5.000000     11.000000

     1   1 0 0     -0.000045     -0.000023     -0.000023      0.000000
     1   0 1 0      0.000000      0.000000      0.000000     -0.000000
     1   0 0 1     -0.000021     -0.000011     -0.000011      0.000000

     2   2 0 0     -3.113948     -2.259514     -2.259514      1.405081
     2   1 1 0      0.000008     -0.000003     -0.000003      0.000013
     2   1 0 1     -0.000001     -0.000001     -0.000001     -0.000000
     2   0 2 0     -3.113785     -2.259572     -2.259572      1.405359
     2   0 1 1     -0.000005     -0.000002     -0.000002     -0.000000
     2   0 0 2     -3.113902     -2.259536     -2.259536      1.405170


 Parallel integral file used     251 records with       0 large values


 Task  times  cpu:       10.5s     wall:       10.5s
 Summary of allocated global arrays
-----------------------------------
  No active global arrays



                         GA Statistics for process    0
                         ------------------------------

       create   destroy   get      put      acc     scatter   gather  read&inc
calls:  109      109     1.59e+04 2967     8108        0        0      467     
number of processes/call 0.00e+00 0.00e+00 0.00e+00 0.00e+00 0.00e+00
bytes total:             5.37e+07 7.95e+06 2.88e+07 0.00e+00 0.00e+00 3.74e+03
bytes remote:            0.00e+00 0.00e+00 0.00e+00 0.00e+00 0.00e+00 0.00e+00
Max memory consumed for GA by this process: 2815800 bytes
MA_summarize_allocated_blocks: starting scan ...
MA_summarize_allocated_blocks: scan completed: 0 heap blocks, 0 stack blocks
MA usage statistics:

	allocation statistics:
					      heap	     stack
					      ----	     -----
	current number of blocks	         0	         0
	maximum number of blocks	        21	        53
	current total bytes		         0	         0
	maximum total bytes		 174056784	  23591656
	maximum total K-bytes		    174057	     23592
	maximum total M-bytes		       175	        24


                                NWChem Input Module
                                -------------------





                                     CITATION
                                     --------
                Please cite the following reference when publishing
                           results obtained with NWChem:

                 M. Valiev, E.J. Bylaska, N. Govind, K. Kowalski,
              T.P. Straatsma, H.J.J. van Dam, D. Wang, J. Nieplocha,
                        E. Apra, T.L. Windus, W.A. de Jong
                 "NWChem: a comprehensive and scalable open-source
                  solution for large scale molecular simulations"
                      Comput. Phys. Commun. 181, 1477 (2010)
                           doi:10.1016/j.cpc.2010.04.018

                                      AUTHORS
                                      -------
     E. Apra, E. J. Bylaska, N. Govind, K. Kowalski, M. Valiev, W. A. de Jong,
      T. P. Straatsma, H. J. J. van Dam, D. Wang, T. L. Windus, N. P. Bauman,
       A. Panyala, J. Hammond, J. Autschbach, K. Bhaskaran-Nair, J. Brabec,
    K. Lopata, S. A. Fischer, S. Krishnamoorthy, M. Jacquelin, W. Ma, M. Klemm,
       O. Villa, Y. Chen, V. Anisimov, F. Aquino, S. Hirata, M. T. Hackler,
           Eric Hermes, L. Jensen, J. E. Moore, J. C. Becca, V. Konjkov,
            D. Mejia-Rodriguez, T. Risthaus, M. Malagoli, A. Marenich,
   A. Otero-de-la-Roza, J. Mullin, P. Nichols, R. Peverati, J. Pittner, Y. Zhao,
        P.-D. Fan, A. Fonari, M. J. Williamson, R. J. Harrison, J. R. Rehr,
      M. Dupuis, D. Silverstein, D. M. A. Smith, J. Nieplocha, V. Tipparaju,
      M. Krishnan, B. E. Van Kuiken, A. Vazquez-Mayagoitia, M. Swart, Q. Wu,
   T. Van Voorhis, A. A. Auer, M. Nooijen, L. D. Crosby, E. Brown, G. Cisneros,
     G. I. Fann, H. Fruchtl, J. Garza, K. Hirao, R. A. Kendall, J. A. Nichols,
       K. Tsemekhman, K. Wolinski, J. Anchell, D. E. Bernholdt, P. Borowski,
       T. Clark, D. Clerc, H. Dachsel, M. J. O. Deegan, K. Dyall, D. Elwood,
      E. Glendening, M. Gutowski, A. C. Hess, J. Jaffe, B. G. Johnson, J. Ju,
        R. Kobayashi, R. Kutteh, Z. Lin, R. Littlefield, X. Long, B. Meng,
      T. Nakajima, S. Niu, L. Pollack, M. Rosing, K. Glaesemann, G. Sandrone,
      M. Stave, H. Taylor, G. Thomas, J. H. van Lenthe, A. T. Wong, Z. Zhang.

 Total times  cpu:       10.6s     wall:       10.6s
