 argument  1 = nh4_aug-cc-pvtz.inp
                                         
                                         


             Northwest Computational Chemistry Package (NWChem) 7.0.0
             --------------------------------------------------------


                    Environmental Molecular Sciences Laboratory
                       Pacific Northwest National Laboratory
                                Richland, WA 99352

                              Copyright (c) 1994-2019
                       Pacific Northwest National Laboratory
                            Battelle Memorial Institute

             NWChem is an open-source computational chemistry package
                        distributed under the terms of the
                      Educational Community License (ECL) 2.0
             A copy of the license is included with this distribution
                              in the LICENSE.TXT file

                                  ACKNOWLEDGMENT
                                  --------------

            This software and its documentation were developed at the
            EMSL at Pacific Northwest National Laboratory, a multiprogram
            national laboratory, operated for the U.S. Department of Energy
            by Battelle under Contract Number DE-AC05-76RL01830. Support
            for this work was provided by the Department of Energy Office
            of Biological and Environmental Research, Office of Basic
            Energy Sciences, and the Office of Advanced Scientific Computing.


           Job information
           ---------------

    hostname        = Amanda-Dewyers-MacBook-Air.local
    program         = nwchem
    date            = Fri Sep 11 17:27:48 2020

    compiled        = Fri_Jul_03_06:05:09_2020
    source          = /private/tmp/nwchem-20200703-71421-tc8c0i/nwchem-7.0.0
    nwchem branch   = 7.0.0
    nwchem revision = 2c9a1c7c
    ga revision     = 5.7.1
    use scalapack   = T
    input           = nh4_aug-cc-pvtz.inp
    prefix          = nh4_aug-cc-pvtz.
    data base       = ./nh4_aug-cc-pvtz.db
    status          = startup
    nproc           =        1
    time left       =     -1s



           Memory information
           ------------------

    heap     =   13107196 doubles =    100.0 Mbytes
    stack    =   13107201 doubles =    100.0 Mbytes
    global   =   26214400 doubles =    200.0 Mbytes (distinct from heap & stack)
    total    =   52428797 doubles =    400.0 Mbytes
    verify   = yes
    hardfail = no 


           Directory information
           ---------------------

  0 permanent = .
  0 scratch   = .




                                NWChem Input Module
                                -------------------


                                     test case
                                     ---------
 C1  symmetry detected

          ------
          auto-z
          ------
  no constraints, skipping    0.0000000000000000     
  no constraints, skipping    0.0000000000000000     


                             Geometry "geometry" -> ""
                             -------------------------

 Output coordinates in a.u. (scale by  1.000000000 to convert to a.u.)

  No.       Tag          Charge          X              Y              Z
 ---- ---------------- ---------- -------------- -------------- --------------
    1 N                    7.0000     0.00001682    -0.00000000     0.00000806
    2 H                    1.0000    -0.99011928    -0.20294100     0.17987908
    3 H                    1.0000     0.56649954    -0.82246279     0.23776620
    4 H                    1.0000     0.29585203     0.79730895     0.57506355
    5 H                    1.0000     0.12764994     0.22809484    -0.99276521

      Atomic Mass 
      ----------- 

      N                 14.003070
      H                  1.007825


 Effective nuclear repulsion energy (a.u.)      30.8536052699

            Nuclear Dipole moment (a.u.) 
            ----------------------------
        X                 Y               Z
 ---------------- ---------------- ----------------
     0.0000000000    -0.0000000000     0.0000000000



                                Z-matrix (autoz)
                                -------- 

 Units are Angstrom for bonds and degrees for angles

      Type          Name      I     J     K     L     M      Value
      ----------- --------  ----- ----- ----- ----- ----- ----------
    1 Stretch                  1     2                       0.54325
    2 Stretch                  1     3                       0.54325
    3 Stretch                  1     4                       0.54325
    4 Stretch                  1     5                       0.54326
    5 Stretch                  2     3                       0.88710
    6 Stretch                  2     4                       0.88712
    7 Stretch                  2     5                       0.88711
    8 Stretch                  3     4                       0.88717
    9 Stretch                  3     5                       0.88714
   10 Stretch                  4     5                       0.88712
   11 Bend                     1     2     3                35.26638
   12 Bend                     1     2     4                35.26482
   13 Bend                     1     2     5                35.26646
   14 Bend                     1     3     2                35.26699
   15 Bend                     1     3     4                35.26038
   16 Bend                     1     3     5                35.26365
   17 Bend                     1     4     2                35.26481
   18 Bend                     1     4     3                35.25976
   19 Bend                     1     4     5                35.26518
   20 Bend                     1     5     2                35.26630
   21 Bend                     1     5     3                35.26289
   22 Bend                     1     5     4                35.26504
   23 Bend                     2     1     3               109.46663
   24 Bend                     2     1     4               109.47036
   25 Bend                     2     1     5               109.46724
   26 Bend                     2     3     4                59.99933
   27 Bend                     2     3     5                59.99942
   28 Bend                     2     4     3                59.99628
   29 Bend                     2     4     5                59.99890
   30 Bend                     2     5     3                59.99811
   31 Bend                     2     5     4                60.00063
   32 Bend                     3     1     4               109.47985
   33 Bend                     3     1     5               109.47345
   34 Bend                     3     2     4                60.00440
   35 Bend                     3     2     5                60.00248
   36 Bend                     3     4     5                59.99925
   37 Bend                     3     5     4                60.00299
   38 Bend                     4     1     5               109.46979
   39 Bend                     4     2     5                60.00047
   40 Bend                     4     3     5                59.99776
   41 Torsion                  1     2     3     4          35.26008
   42 Torsion                  1     2     3     5         -35.26647
   43 Torsion                  1     2     4     3         -35.26164
   44 Torsion                  1     2     4     5          35.26819
   45 Torsion                  1     2     5     3          35.26640
   46 Torsion                  1     2     5     4         -35.26656
   47 Torsion                  1     3     2     4         -35.26008
   48 Torsion                  1     3     2     5          35.26647
   49 Torsion                  1     3     4     2          35.26668
   50 Torsion                  1     3     4     5         -35.26257
   51 Torsion                  1     3     5     2         -35.26981
   52 Torsion                  1     3     5     4          35.25930
   53 Torsion                  1     4     2     3          35.26164
   54 Torsion                  1     4     2     5         -35.26819
   55 Torsion                  1     4     3     2         -35.26668
   56 Torsion                  1     4     3     5          35.26257
   57 Torsion                  1     4     5     2          35.26782
   58 Torsion                  1     4     5     3         -35.25716
   59 Torsion                  1     5     2     3         -35.26640
   60 Torsion                  1     5     2     4          35.26656
   61 Torsion                  1     5     3     2          35.26981
   62 Torsion                  1     5     3     4         -35.25930
   63 Torsion                  1     5     4     2         -35.26782
   64 Torsion                  1     5     4     3          35.25716
   65 Torsion                  2     1     3     4        -120.00142
   66 Torsion                  2     1     3     5         119.99368
   67 Torsion                  2     1     4     3         119.99913
   68 Torsion                  2     1     4     5        -119.99373
   69 Torsion                  2     1     5     3        -119.99330
   70 Torsion                  2     1     5     4         119.99564
   71 Torsion                  2     3     1     4         120.00142
   72 Torsion                  2     3     1     5        -119.99368
   73 Torsion                  2     3     4     5         -70.52925
   74 Torsion                  2     3     5     4          70.52911
   75 Torsion                  2     4     1     3        -119.99913
   76 Torsion                  2     4     1     5         119.99373
   77 Torsion                  2     4     3     5          70.52925
   78 Torsion                  2     4     5     3         -70.52498
   79 Torsion                  2     5     1     3         119.99330
   80 Torsion                  2     5     1     4        -119.99564
   81 Torsion                  2     5     3     4         -70.52911
   82 Torsion                  2     5     4     3          70.52498
   83 Torsion                  3     1     2     4         120.00723
   84 Torsion                  3     1     2     5        -119.99748
   85 Torsion                  3     1     4     5         120.00714
   86 Torsion                  3     1     5     4        -120.01106
   87 Torsion                  3     2     1     4        -120.00723
   88 Torsion                  3     2     1     5         119.99748
   89 Torsion                  3     2     4     5          70.52983
   90 Torsion                  3     2     5     4         -70.53296
   91 Torsion                  3     4     1     5        -120.00714
   92 Torsion                  3     4     2     5         -70.52983
   93 Torsion                  3     5     1     4         120.01106
   94 Torsion                  3     5     2     4          70.53296
   95 Torsion                  4     1     2     5         119.99528
   96 Torsion                  4     1     3     5        -120.00490
   97 Torsion                  4     2     1     5        -119.99528
   98 Torsion                  4     2     3     5         -70.52655
   99 Torsion                  4     3     1     5         120.00490
  100 Torsion                  4     3     2     5          70.52655


            XYZ format geometry
            -------------------
     5
 geometry
 N                     0.00000890    -0.00000000     0.00000426
 H                    -0.52394860    -0.10739176     0.09518792
 H                     0.29977867    -0.43522860     0.12582046
 H                     0.15655816     0.42191776     0.30431055
 H                     0.06754944     0.12070260    -0.52534876

 ==============================================================================
                                internuclear distances
 ------------------------------------------------------------------------------
       center one      |      center two      | atomic units |       a.u.
 ------------------------------------------------------------------------------
    2 H                |   1 N                |     1.02660  |     1.02660
    3 H                |   1 N                |     1.02658  |     1.02658
    4 H                |   1 N                |     1.02660  |     1.02660
    5 H                |   1 N                |     1.02660  |     1.02660
 ------------------------------------------------------------------------------
                         number of included internuclear distances:          4
 ==============================================================================



 ==============================================================================
                                 internuclear angles
 ------------------------------------------------------------------------------
        center 1       |       center 2       |       center 3       |  degrees
 ------------------------------------------------------------------------------
    2 H                |   1 N                |   3 H                |   109.47
    2 H                |   1 N                |   4 H                |   109.47
    2 H                |   1 N                |   5 H                |   109.47
    3 H                |   1 N                |   4 H                |   109.48
    3 H                |   1 N                |   5 H                |   109.47
    4 H                |   1 N                |   5 H                |   109.47
 ------------------------------------------------------------------------------
                            number of included internuclear angles:          6
 ==============================================================================



  library name resolved from: .nwchemrc
  library file name is: </usr/local/Cellar/nwchem/7.0.0_2/share/nwchem/libraries/>
  


 Summary of "ao basis" -> "" (cartesian)
 ------------------------------------------------------------------------------
       Tag                 Description            Shells   Functions and Types
 ---------------- ------------------------------  ------  ---------------------
 *                        aug-cc-pvtz                 on all atoms 



                                 NWChem DFT Module
                                 -----------------


                                     test case


                      Basis "ao basis" -> "ao basis" (cartesian)
                      -----
  N (Nitrogen)
  ------------
            Exponent  Coefficients 
       -------------- ---------------------------------------------------------
  1 S  1.14200000E+04  0.000523
  1 S  1.71200000E+03  0.004045
  1 S  3.89300000E+02  0.020775
  1 S  1.10000000E+02  0.080727
  1 S  3.55700000E+01  0.233074
  1 S  1.25400000E+01  0.433501
  1 S  4.64400000E+00  0.347472
  1 S  5.11800000E-01 -0.008508

  2 S  1.14200000E+04 -0.000115
  2 S  1.71200000E+03 -0.000895
  2 S  3.89300000E+02 -0.004624
  2 S  1.10000000E+02 -0.018528
  2 S  3.55700000E+01 -0.057339
  2 S  1.25400000E+01 -0.132076
  2 S  4.64400000E+00 -0.172510
  2 S  5.11800000E-01  0.599944

  3 S  1.29300000E+00  1.000000

  4 S  1.78700000E-01  1.000000

  5 S  5.76000000E-02  1.000000

  6 P  2.66300000E+01  0.014670
  6 P  5.94800000E+00  0.091764
  6 P  1.74200000E+00  0.298683

  7 P  5.55000000E-01  1.000000

  8 P  1.72500000E-01  1.000000

  9 P  4.91000000E-02  1.000000

 10 D  1.65400000E+00  1.000000

 11 D  4.69000000E-01  1.000000

 12 D  1.51000000E-01  1.000000

 13 F  1.09300000E+00  1.000000

 14 F  3.64000000E-01  1.000000

  H (Hydrogen)
  ------------
            Exponent  Coefficients 
       -------------- ---------------------------------------------------------
  1 S  3.38700000E+01  0.006068
  1 S  5.09500000E+00  0.045308
  1 S  1.15900000E+00  0.202822

  2 S  3.25800000E-01  1.000000

  3 S  1.02700000E-01  1.000000

  4 S  2.52600000E-02  1.000000

  5 P  1.40700000E+00  1.000000

  6 P  3.88000000E-01  1.000000

  7 P  1.02000000E-01  1.000000

  8 D  1.05700000E+00  1.000000

  9 D  2.47000000E-01  1.000000



 Summary of "ao basis" -> "ao basis" (cartesian)
 ------------------------------------------------------------------------------
       Tag                 Description            Shells   Functions and Types
 ---------------- ------------------------------  ------  ---------------------
 N                        aug-cc-pvtz               14       55   5s4p3d2f
 H                        aug-cc-pvtz                9       25   4s3p2d




 Summary of "ao basis" -> "ao basis" (cartesian)
 ------------------------------------------------------------------------------
       Tag                 Description            Shells   Functions and Types
 ---------------- ------------------------------  ------  ---------------------
 N                        aug-cc-pvtz               14       55   5s4p3d2f
 H                        aug-cc-pvtz                9       25   4s3p2d


  Caching 1-el integrals 

            General Information
            -------------------
          SCF calculation type: DFT
          Wavefunction type:  closed shell.
          No. of atoms     :     5
          No. of electrons :    10
           Alpha electrons :     5
            Beta electrons :     5
          Charge           :     1
          Spin multiplicity:     1
          Use of symmetry is: off; symmetry adaption is: off
          Maximum number of iterations:  30
          AO basis - number of functions:   155
                     number of shells:    50
          Convergence on energy requested:  1.00D-06
          Convergence on density requested:  1.00D-05
          Convergence on gradient requested:  5.00D-04

              XC Information
              --------------
                         B3LYP Method XC Potential
                     Hartree-Fock (Exact) Exchange  0.200          
                        Slater Exchange Functional  0.800 local    
                    Becke 1988 Exchange Functional  0.720 non-local
              Lee-Yang-Parr Correlation Functional  0.810          
                  VWN I RPA Correlation Functional  0.190 local    

             Grid Information
             ----------------
          Grid used for XC integration:  medium    
          Radial quadrature: Mura-Knowles        
          Angular quadrature: Lebedev. 
          Tag              B.-S. Rad. Rad. Pts. Rad. Cut. Ang. Pts.
          ---              ---------- --------- --------- ---------
          N                   0.65       49          10.0       434
          H                   0.35       45          11.0       434
          Grid pruning is: on 
          Number of quadrature shells:   229
          Spatial weights used:  Erf1

          Convergence Information
          -----------------------
          Convergence aids based upon iterative change in 
          total energy or number of iterations. 
          Levelshifting, if invoked, occurs when the 
          HOMO/LUMO gap drops below (HL_TOL):  1.00D-02
          DIIS, if invoked, will attempt to extrapolate 
          using up to (NFOCK): 10 stored Fock matrices.

                    Damping( 0%)  Levelshifting(0.5)       DIIS
                  --------------- ------------------- ---------------
          dE  on:    start            ASAP                start   
          dE off:    2 iters         30 iters            30 iters 


      Screening Tolerance Information
      -------------------------------
          Density screening/tol_rho:  1.00D-10
          AO Gaussian exp screening on grid/accAOfunc:  14
          CD Gaussian exp screening on grid/accCDfunc:  20
          XC Gaussian exp screening on grid/accXCfunc:  20
          Schwarz screening/accCoul:  1.00D-08


 WARNING : Found     4 linear dependencies 
 S eigenvalue threshold:     1.00000E-05
 Smallest S eigenvalue :     1.32830E-06
 Largest  S eigenvalue :     1.71773E-06


 !! The overlap matrix has   4 vectors deemed linearly dependent with
    eigenvalues:
 1.33D-06 1.71D-06 1.71D-06 1.72D-06


      Superposition of Atomic Density Guess
      -------------------------------------

 Sum of atomic energies:         -56.30945877

 Renormalizing density from      11.00 to     10

      Non-variational initial energy
      ------------------------------

 Total energy =     -52.437835
 1-e energy   =    -113.928038
 2-e energy   =      30.636598
 HOMO         =      -2.012605
 LUMO         =      -0.295803

   Time after variat. SCF:      5.4
   Time prior to 1st pass:      5.4

 Integral file          = ./nh4_aug-cc-pvtz.aoints.0
 Record size in doubles =  65536        No. of integs per rec  =  43688
 Max. records in memory =      0        Max. records in file   = 141672
 No. of bits per label  =      8        No. of bits per value  =     64


 #quartets = 8.134D+05 #integrals = 7.544D+07 #direct =  0.0% #cached =100.0%


 Grid_pts file          = ./nh4_aug-cc-pvtz.gridpts.0
 Record size in doubles =  12289        No. of grid_pts per rec  =   3070
 Max. records in memory =     37        Max. recs in file   =    746817

 Grid integrated density:      10.029199510002
 Requested integration accuracy:   0.10E-05

           Memory utilization after 1st SCF pass: 
           Heap Space remaining (MW):       12.65            12648660
          Stack Space remaining (MW):       13.11            13106284

   convergence    iter        energy       DeltaE   RMS-Dens  Diis-err    time
 ---------------- ----- ----------------- --------- --------- ---------  ------
 d= 0,ls=0.0,diis     1    -53.9709805898 -8.48D+01  9.19D+02  5.90D+01    17.5
 Grid integrated density:       9.999293252167
 Requested integration accuracy:   0.10E-05
 d= 0,ls=0.0,diis     2     -9.8857900933  4.41D+01  8.20D+00  2.41D+02    23.7
 Grid integrated density:       9.999293846152
 Requested integration accuracy:   0.10E-05
 d= 0,ls=0.0,diis     3    -10.2793674335 -3.94D-01  5.66D+00  2.23D+02    29.8
 Grid integrated density:       9.999294239866
 Requested integration accuracy:   0.10E-05
 d= 0,ls=0.0,diis     4    -10.5326886086 -2.53D-01  2.62D+00  2.12D+02    35.2
 Grid integrated density:       9.999294450964
 Requested integration accuracy:   0.10E-05
 d= 0,ls=0.0,diis     5    -10.6476980490 -1.15D-01  3.85D+00  2.08D+02    40.4
 Grid integrated density:       9.999294725031
 Requested integration accuracy:   0.10E-05
 d= 0,ls=0.0,diis     6    -10.8095085250 -1.62D-01  2.03D-02  2.02D+02    45.8
 Grid integrated density:       9.999294725921
 Requested integration accuracy:   0.10E-05
  Resetting Diis
 d= 0,ls=0.0,diis     7    -10.8101862153 -6.78D-04  4.23D-02  2.02D+02    51.6
 Grid integrated density:       9.999934774340
 Requested integration accuracy:   0.10E-05
 d= 0,ls=0.0,diis     8    -10.8117431357 -1.56D-03  9.10D+02  2.02D+02    57.8
 Grid integrated density:       9.999967196282
 Requested integration accuracy:   0.10E-05
 d= 0,ls=0.0,diis     9    -51.0458938052 -4.02D+01  3.73D-02  6.39D+01    63.9
 Grid integrated density:       9.999976787390
 Requested integration accuracy:   0.10E-05
 d= 0,ls=0.0,diis    10    -54.4286911395 -3.38D+00  7.02D-03  2.07D+00    70.0
 Grid integrated density:       9.999975876050
 Requested integration accuracy:   0.10E-05
 d= 0,ls=0.0,diis    11    -54.5073559079 -7.87D-02  1.94D-03  2.47D-02    77.2
 Grid integrated density:       9.999975706075
 Requested integration accuracy:   0.10E-05
 d= 0,ls=0.0,diis    12    -54.5089099817 -1.55D-03  1.35D-04  4.62D-04    84.4
 Grid integrated density:       9.999975722921
 Requested integration accuracy:   0.10E-05
 d= 0,ls=0.0,diis    13    -54.5089425353 -3.26D-05  9.15D-06  2.87D-06    91.1
 Grid integrated density:       9.999975723496
 Requested integration accuracy:   0.10E-05
 d= 0,ls=0.0,diis    14    -54.5089427035 -1.68D-07  1.27D-06  6.41D-08    97.2


         Total DFT energy =      -54.508942703486
      One electron energy =     -125.789016037054
           Coulomb energy =       49.826316356885
    Exchange-Corr. energy =       -9.399848293194
 Nuclear repulsion energy =       30.853605269876

 Numeric. integr. density =        9.999975723496

     Total iterative time =     91.8s



                       DFT Final Molecular Orbital Analysis
                       ------------------------------------

 Vector    1  Occ=2.000000D+00  E=-1.470101D+01
              MO Center=  8.8D-06, -2.7D-08,  4.2D-06, r^2= 2.0D-02
   Bfn.  Coefficient  Atom+Function         Bfn.  Coefficient  Atom+Function  
  ----- ------------  ---------------      ----- ------------  ---------------
     1      1.008366  1 N  s                  2      0.087612  1 N  s          
     3      0.061145  1 N  s                 57     -0.049743  2 H  s          
    82     -0.049786  3 H  s                107     -0.049793  4 H  s          
   132     -0.049741  5 H  s                  4     -0.044606  1 N  s          
    30     -0.037676  1 N  dxx               33     -0.037658  1 N  dyy        

 Vector    2  Occ=2.000000D+00  E=-1.628903D+00
              MO Center= -3.9D-05, -5.5D-06, -1.7D-05, r^2= 4.5D-01
   Bfn.  Coefficient  Atom+Function         Bfn.  Coefficient  Atom+Function  
  ----- ------------  ---------------      ----- ------------  ---------------
     2      0.590869  1 N  s                 56      0.181627  2 H  s          
    81      0.181601  3 H  s                106      0.181597  4 H  s          
   131      0.181614  5 H  s                 57     -0.104986  2 H  s          
    82     -0.105191  3 H  s                107     -0.105215  4 H  s          
   132     -0.104991  5 H  s                 30     -0.100491  1 N  dxx        

 Vector    3  Occ=2.000000D+00  E=-1.140591D+00
              MO Center=  6.0D-02, -1.1D-02,  4.9D-02, r^2= 4.7D-01
   Bfn.  Coefficient  Atom+Function         Bfn.  Coefficient  Atom+Function  
  ----- ------------  ---------------      ----- ------------  ---------------
    13      0.434676  1 N  py                82     -0.419397  3 H  s          
     7      0.393634  1 N  py               107      0.383268  4 H  s          
    81     -0.263397  3 H  s                106      0.240656  4 H  s          
    10     -0.171062  1 N  py                47     -0.168955  1 N  fxxy       
    54     -0.166252  1 N  fyzz              52     -0.161985  1 N  fyyy       

 Vector    4  Occ=2.000000D+00  E=-1.140542D+00
              MO Center=  2.9D-02,  5.5D-02, -7.7D-02, r^2= 4.6D-01
   Bfn.  Coefficient  Atom+Function         Bfn.  Coefficient  Atom+Function  
  ----- ------------  ---------------      ----- ------------  ---------------
   132      0.485914  5 H  s                 14     -0.434689  1 N  pz         
     8     -0.392908  1 N  pz               107     -0.316899  4 H  s          
   131      0.305328  5 H  s                106     -0.199554  4 H  s          
    55      0.178381  1 N  fzzz              11      0.170754  1 N  pz         
    53      0.169409  1 N  fyyz             150     -0.120294  5 H  dxx        

 Vector    5  Occ=2.000000D+00  E=-1.140528D+00
              MO Center= -8.9D-02, -4.4D-02,  2.9D-02, r^2= 4.6D-01
   Bfn.  Coefficient  Atom+Function         Bfn.  Coefficient  Atom+Function  
  ----- ------------  ---------------      ----- ------------  ---------------
    57      0.500720  2 H  s                 12     -0.435400  1 N  px         
     6     -0.393468  1 N  px                56      0.314724  2 H  s          
    82     -0.275012  3 H  s                 46      0.178867  1 N  fxxx       
    81     -0.173234  3 H  s                  9      0.171007  1 N  px         
    49      0.165619  1 N  fxyy             107     -0.130290  4 H  s          

 Vector    6  Occ=0.000000D+00  E=-2.182620D-01
              MO Center= -1.2D-04,  1.2D-05, -8.3D-05, r^2= 5.4D+00
   Bfn.  Coefficient  Atom+Function         Bfn.  Coefficient  Atom+Function  
  ----- ------------  ---------------      ----- ------------  ---------------
     5      0.854970  1 N  s                  2     -0.195895  1 N  s          
    58     -0.150154  2 H  s                 83     -0.149800  3 H  s          
   108     -0.149671  4 H  s                133     -0.150236  5 H  s          
    30      0.120182  1 N  dxx               33      0.120122  1 N  dyy        
    35      0.120163  1 N  dzz               59      0.081476  2 H  s          

 Vector    7  Occ=0.000000D+00  E=-1.450099D-01
              MO Center=  2.6D-02, -1.9D-02,  1.2D-02, r^2= 7.8D+00
   Bfn.  Coefficient  Atom+Function         Bfn.  Coefficient  Atom+Function  
  ----- ------------  ---------------      ----- ------------  ---------------
    84      1.613232  3 H  s                109     -0.968515  4 H  s          
   134     -0.556770  5 H  s                 16     -0.412043  1 N  py         
    82     -0.182203  3 H  s                 15      0.119792  1 N  px         
   107      0.109447  4 H  s                  7      0.100376  1 N  py         
    67     -0.092646  2 H  py                59     -0.088013  2 H  s          

 Vector    8  Occ=0.000000D+00  E=-1.450080D-01
              MO Center=  9.0D-03,  2.2D-02, -2.5D-02, r^2= 7.8D+00
   Bfn.  Coefficient  Atom+Function         Bfn.  Coefficient  Atom+Function  
  ----- ------------  ---------------      ----- ------------  ---------------
   134      1.572335  5 H  s                109     -1.132138  4 H  s          
    17     -0.428947  1 N  pz                59     -0.286937  2 H  s          
   132     -0.177973  5 H  s                 84     -0.152981  3 H  s          
   107      0.127174  4 H  s                  8      0.104524  1 N  pz         
    93     -0.093552  3 H  pz                68     -0.092716  2 H  pz         

 Vector    9  Occ=0.000000D+00  E=-1.450027D-01
              MO Center= -3.5D-02, -3.3D-03,  1.2D-02, r^2= 7.8D+00
   Bfn.  Coefficient  Atom+Function         Bfn.  Coefficient  Atom+Function  
  ----- ------------  ---------------      ----- ------------  ---------------
    59      1.673575  2 H  s                109     -0.819428  4 H  s          
    84     -0.518061  3 H  s                 15     -0.417646  1 N  px         
   134     -0.336041  5 H  s                 57     -0.189394  2 H  s          
    16     -0.120512  1 N  py                 6      0.101690  1 N  px         
   107      0.092309  4 H  s                141     -0.090517  5 H  px         

 Vector   10  Occ=0.000000D+00  E=-5.905142D-02
              MO Center= -6.0D-04, -7.4D-04, -4.0D-03, r^2= 2.0D+01
   Bfn.  Coefficient  Atom+Function         Bfn.  Coefficient  Atom+Function  
  ----- ------------  ---------------      ----- ------------  ---------------
     5      9.719258  1 N  s                 58     -6.527637  2 H  s          
    83     -6.512769  3 H  s                108     -6.512517  4 H  s          
   133     -6.527234  5 H  s                 30      3.885543  1 N  dxx        
    33      3.885017  1 N  dyy               35      3.885919  1 N  dzz        
     4      2.551033  1 N  s                 57      2.369188  2 H  s          

 Vector   11  Occ=0.000000D+00  E=-4.547179D-02
              MO Center=  2.3D-02,  1.6D-01, -2.0D-01, r^2= 1.3D+01
   Bfn.  Coefficient  Atom+Function         Bfn.  Coefficient  Atom+Function  
  ----- ------------  ---------------      ----- ------------  ---------------
   134      6.679497  5 H  s                109     -4.624852  4 H  s          
    59     -2.999830  2 H  s                 17      2.071943  1 N  pz         
   143     -1.506495  5 H  pz                14      1.289566  1 N  pz         
    84      0.942423  3 H  s                117     -0.914490  4 H  py         
    66      0.705785  2 H  px                15     -0.644607  1 N  px         

 Vector   12  Occ=0.000000D+00  E=-4.547048D-02
              MO Center=  1.9D-01, -2.8D-01,  3.4D-02, r^2= 1.3D+01
   Bfn.  Coefficient  Atom+Function         Bfn.  Coefficient  Atom+Function  
  ----- ------------  ---------------      ----- ------------  ---------------
    84      7.484828  3 H  s                134     -3.360657  5 H  s          
    59     -2.259679  2 H  s                109     -1.863575  4 H  s          
    16      1.714718  1 N  py                92     -1.423989  3 H  py         
    15     -1.185771  1 N  px                13      1.065240  1 N  py         
    91      0.980488  3 H  px                17     -0.784549  1 N  pz         

 Vector   13  Occ=0.000000D+00  E=-4.545136D-02
              MO Center= -2.2D-01,  1.1D-01,  1.7D-01, r^2= 1.3D+01
   Bfn.  Coefficient  Atom+Function         Bfn.  Coefficient  Atom+Function  
  ----- ------------  ---------------      ----- ------------  ---------------
    59      6.536846  2 H  s                109     -5.655829  4 H  s          
    15      1.770216  1 N  px                66     -1.500568  2 H  px         
    16      1.328770  1 N  py                12      1.102992  1 N  px         
   117     -1.035901  4 H  py               134     -0.998998  5 H  s          
   118     -0.832282  4 H  pz                13      0.826496  1 N  py         

 Vector   14  Occ=0.000000D+00  E=-3.187208D-02
              MO Center= -3.4D-05, -2.0D-05, -4.1D-06, r^2= 5.7D+00
   Bfn.  Coefficient  Atom+Function         Bfn.  Coefficient  Atom+Function  
  ----- ------------  ---------------      ----- ------------  ---------------
    67      1.660992  2 H  py               142     -1.632765  5 H  py         
    31      1.509082  1 N  dxy               34     -1.494874  1 N  dyz        
    91      1.470571  3 H  px               118      1.474406  4 H  pz         
    33      0.981610  1 N  dyy              117     -0.879912  4 H  py         
    92      0.850429  3 H  py               141     -0.555813  5 H  px         

 Vector   15  Occ=0.000000D+00  E=-3.187033D-02
              MO Center= -4.0D-05,  5.0D-06, -4.7D-05, r^2= 5.7D+00
   Bfn.  Coefficient  Atom+Function         Bfn.  Coefficient  Atom+Function  
  ----- ------------  ---------------      ----- ------------  ---------------
    32      2.434108  1 N  dxz               68      1.686091  2 H  pz         
   141      1.676419  5 H  px                93     -1.646692  3 H  pz         
   116     -1.637913  4 H  px                34     -0.866771  1 N  dyz        
    31      0.711831  1 N  dxy              117      0.692319  4 H  py         
    92     -0.637933  3 H  py               142     -0.594491  5 H  py         

 Vector   16  Occ=0.000000D+00  E=-2.330857D-02
              MO Center=  3.2D-01, -3.9D-01,  3.2D-01, r^2= 1.4D+01
   Bfn.  Coefficient  Atom+Function         Bfn.  Coefficient  Atom+Function  
  ----- ------------  ---------------      ----- ------------  ---------------
    84      7.257774  3 H  s                109     -4.281250  4 H  s          
    59     -3.225138  2 H  s                 13      1.969539  1 N  py         
    16      1.492104  1 N  py                12     -1.377149  1 N  px         
    67     -1.053386  2 H  py                15     -1.044632  1 N  px         
   116      0.962245  4 H  px               142     -0.887982  5 H  py         

 Vector   17  Occ=0.000000D+00  E=-2.330790D-02
              MO Center=  1.4D-01,  1.7D-01, -6.6D-01, r^2= 1.4D+01
   Bfn.  Coefficient  Atom+Function         Bfn.  Coefficient  Atom+Function  
  ----- ------------  ---------------      ----- ------------  ---------------
   134      7.784086  5 H  s                109     -2.983706  4 H  s          
    84     -2.880088  3 H  s                 14      2.371095  1 N  pz         
    59     -1.921352  2 H  s                 17      1.802592  1 N  pz         
   143      1.081449  5 H  pz                11     -0.987250  1 N  pz         
    68     -0.959940  2 H  pz                48     -0.937945  1 N  fxxz       

 Vector   18  Occ=0.000000D+00  E=-2.328289D-02
              MO Center= -4.6D-01,  2.2D-01,  3.5D-01, r^2= 1.4D+01
   Bfn.  Coefficient  Atom+Function         Bfn.  Coefficient  Atom+Function  
  ----- ------------  ---------------      ----- ------------  ---------------
    59      6.862820  2 H  s                109     -5.824958  4 H  s          
    12      1.993817  1 N  px                15      1.516506  1 N  px         
    13      1.335704  1 N  py                16      1.013628  1 N  py         
    66      0.988609  2 H  px               141     -0.863303  5 H  px         
     9     -0.829860  1 N  px                91     -0.830163  3 H  px         

 Vector   19  Occ=0.000000D+00  E= 1.070693D-01
              MO Center=  1.3D-03, -2.8D-03, -5.8D-04, r^2= 1.7D+01
   Bfn.  Coefficient  Atom+Function         Bfn.  Coefficient  Atom+Function  
  ----- ------------  ---------------      ----- ------------  ---------------
     5     27.252777  1 N  s                 58    -23.438730  2 H  s          
    83    -23.385517  3 H  s                108    -23.388636  4 H  s          
   133    -23.438849  5 H  s                 30     13.623568  1 N  dxx        
    33     13.622040  1 N  dyy               35     13.623451  1 N  dzz        
     4      9.069602  1 N  s                 57      8.483855  2 H  s          

 Vector   20  Occ=0.000000D+00  E= 1.186021D-01
              MO Center= -1.4D-01,  1.4D-01, -1.3D-01, r^2= 1.5D+01
   Bfn.  Coefficient  Atom+Function         Bfn.  Coefficient  Atom+Function  
  ----- ------------  ---------------      ----- ------------  ---------------
    13     12.086433  1 N  py                84     10.122733  3 H  s          
    12     -7.504091  1 N  px               109     -6.376188  4 H  s          
    16      5.609219  1 N  py                82      5.158553  3 H  s          
    83     -4.954295  3 H  s                 59     -3.959953  2 H  s          
    15     -3.481992  1 N  px                92     -3.461425  3 H  py         

 Vector   21  Occ=0.000000D+00  E= 1.186139D-01
              MO Center= -4.4D-02, -1.4D-01,  3.3D-02, r^2= 1.5D+01
   Bfn.  Coefficient  Atom+Function         Bfn.  Coefficient  Atom+Function  
  ----- ------------  ---------------      ----- ------------  ---------------
    14     12.005472  1 N  pz               109     -8.257573  4 H  s          
   134      7.668096  5 H  s                 12      7.499129  1 N  px         
    17      5.568632  1 N  pz                59      4.275937  2 H  s          
   107     -4.202644  4 H  s                108      3.988744  4 H  s          
   132      3.897312  5 H  s                 84     -3.687223  3 H  s          

 Vector   22  Occ=0.000000D+00  E= 1.186211D-01
              MO Center=  1.8D-01, -5.5D-03,  9.7D-02, r^2= 1.5D+01
   Bfn.  Coefficient  Atom+Function         Bfn.  Coefficient  Atom+Function  
  ----- ------------  ---------------      ----- ------------  ---------------
    12      9.721113  1 N  px                59      9.230328  2 H  s          
   134     -7.764835  5 H  s                 14     -7.646725  1 N  pz         
    13      7.365992  1 N  py                57      4.695435  2 H  s          
    15      4.506163  1 N  px                58     -4.383036  2 H  s          
   132     -3.949284  5 H  s                133      3.671398  5 H  s          

 Vector   23  Occ=0.000000D+00  E= 1.421581D-01
              MO Center= -1.4D-04,  8.3D-06, -1.7D-04, r^2= 7.4D+00
   Bfn.  Coefficient  Atom+Function         Bfn.  Coefficient  Atom+Function  
  ----- ------------  ---------------      ----- ------------  ---------------
    58     12.845554  2 H  s                 83     12.790589  3 H  s          
   108     12.785164  4 H  s                133     12.848125  5 H  s          
    30    -11.331997  1 N  dxx               33    -11.327490  1 N  dyy        
    35    -11.331428  1 N  dzz               57     -8.278439  2 H  s          
    82     -8.293659  3 H  s                107     -8.295300  4 H  s          

 Vector   24  Occ=0.000000D+00  E= 1.448651D-01
              MO Center=  7.2D-02, -1.5D-02,  1.2D-01, r^2= 7.2D+00
   Bfn.  Coefficient  Atom+Function         Bfn.  Coefficient  Atom+Function  
  ----- ------------  ---------------      ----- ------------  ---------------
   116      5.697204  4 H  px                67      5.294127  2 H  py         
    91     -4.721046  3 H  px                92     -4.519209  3 H  py         
    93     -4.387926  3 H  pz               117     -4.336343  4 H  py         
   142      3.557633  5 H  py               118      3.074038  4 H  pz         
    66     -0.994450  2 H  px               143      0.823517  5 H  pz         

 Vector   25  Occ=0.000000D+00  E= 1.448662D-01
              MO Center=  1.0D-02,  6.0D-02, -1.4D-02, r^2= 7.3D+00
   Bfn.  Coefficient  Atom+Function         Bfn.  Coefficient  Atom+Function  
  ----- ------------  ---------------      ----- ------------  ---------------
   142      6.771351  5 H  py               118      5.425454  4 H  pz         
    67     -5.248463  2 H  py                93     -4.375111  3 H  pz         
   116     -4.126662  4 H  px                91      3.083171  3 H  px         
    68     -2.668956  2 H  pz               117     -2.390079  4 H  py         
   143      1.621737  5 H  pz                92      0.866644  3 H  py         

 Vector   26  Occ=0.000000D+00  E= 1.448682D-01
              MO Center= -8.2D-02, -4.5D-02, -1.0D-01, r^2= 7.2D+00
   Bfn.  Coefficient  Atom+Function         Bfn.  Coefficient  Atom+Function  
  ----- ------------  ---------------      ----- ------------  ---------------
   141     -7.798415  5 H  px                68      7.260277  2 H  pz         
    93     -4.502109  3 H  pz                91      3.361704  3 H  px         
   116      2.710065  4 H  px                67     -1.992162  2 H  py         
   118     -1.897919  4 H  pz                66      1.730025  2 H  px         
    92      1.014923  3 H  py               138     -0.978124  5 H  px         

 Vector   27  Occ=0.000000D+00  E= 1.925274D-01
              MO Center=  4.3D-01,  9.1D-02,  4.1D-01, r^2= 7.1D+00
   Bfn.  Coefficient  Atom+Function         Bfn.  Coefficient  Atom+Function  
  ----- ------------  ---------------      ----- ------------  ---------------
   107     23.269655  4 H  s                 82    -20.749359  3 H  s          
    13    -17.668438  1 N  py                34    -11.167956  1 N  dyz        
    31    -10.970930  1 N  dxy              108    -10.153635  4 H  s          
    83      9.061113  3 H  s                 14     -8.055203  1 N  pz         
   125      6.593265  4 H  dxx              130      6.298418  4 H  dzz        

 Vector   28  Occ=0.000000D+00  E= 1.925633D-01
              MO Center=  2.6D-02, -1.0D-01, -2.5D-02, r^2= 7.5D+00
   Bfn.  Coefficient  Atom+Function         Bfn.  Coefficient  Atom+Function  
  ----- ------------  ---------------      ----- ------------  ---------------
    82     17.819156  3 H  s                132    -16.122092  5 H  s          
    57    -15.825199  2 H  s                 12    -14.743026  1 N  px         
   107     14.094791  4 H  s                 14    -13.490259  1 N  pz         
    83     -7.556667  3 H  s                 33     -6.821782  1 N  dyy        
   133      6.808518  5 H  s                 32     -6.746790  1 N  dxz        

 Vector   29  Occ=0.000000D+00  E= 1.925906D-01
              MO Center= -4.6D-01,  1.1D-02, -3.9D-01, r^2= 7.1D+00
   Bfn.  Coefficient  Atom+Function         Bfn.  Coefficient  Atom+Function  
  ----- ------------  ---------------      ----- ------------  ---------------
    57     22.521693  2 H  s                132    -21.748076  5 H  s          
    12     12.753927  1 N  px                14    -12.540775  1 N  pz         
    58     -9.309791  2 H  s                 13      9.258822  1 N  py         
   133      8.975716  5 H  s                 30     -7.932062  1 N  dxx        
    35      7.755092  1 N  dzz               78      6.573492  2 H  dyy        

 Vector   30  Occ=0.000000D+00  E= 2.427478D-01
              MO Center= -2.3D-05, -2.3D-05,  1.9D-05, r^2= 5.7D+00
   Bfn.  Coefficient  Atom+Function         Bfn.  Coefficient  Atom+Function  
  ----- ------------  ---------------      ----- ------------  ---------------
    31      5.251051  1 N  dxy               34     -5.248129  1 N  dyz        
    33      3.163347  1 N  dyy               67      3.110614  2 H  py         
   142     -3.068879  5 H  py               118      2.669674  4 H  pz         
    91      2.644587  3 H  px                35     -1.632901  1 N  dzz        
    30     -1.532373  1 N  dxx              117     -1.486821  4 H  py         

 Vector   31  Occ=0.000000D+00  E= 2.427505D-01
              MO Center= -6.7D-05,  1.5D-06, -5.3D-05, r^2= 5.7D+00
   Bfn.  Coefficient  Atom+Function         Bfn.  Coefficient  Atom+Function  
  ----- ------------  ---------------      ----- ------------  ---------------
    32      8.279711  1 N  dxz               68      3.145775  2 H  pz         
   141      3.138620  5 H  px                93     -2.911736  3 H  pz         
   116     -2.906737  4 H  px                34     -2.451197  1 N  dyz        
    31      1.929984  1 N  dxy               33     -1.581490  1 N  dyy        
   117      1.399421  4 H  py                92     -1.296174  3 H  py         

 Vector   32  Occ=0.000000D+00  E= 3.042713D-01
              MO Center= -9.3D-02, -2.0D-02, -8.7D-02, r^2= 4.9D+00
   Bfn.  Coefficient  Atom+Function         Bfn.  Coefficient  Atom+Function  
  ----- ------------  ---------------      ----- ------------  ---------------
    13     32.109593  1 N  py               107    -29.409195  4 H  s          
    82     26.292507  3 H  s                 14     16.545314  1 N  pz         
   108     16.144310  4 H  s                 83    -14.442899  3 H  s          
    12    -10.733245  1 N  px               125     -9.945382  4 H  dxx        
   130     -9.668105  4 H  dzz              132      9.638186  5 H  s          

 Vector   33  Occ=0.000000D+00  E= 3.043230D-01
              MO Center=  1.3D-03,  2.3D-02, -1.6D-03, r^2= 4.9D+00
   Bfn.  Coefficient  Atom+Function         Bfn.  Coefficient  Atom+Function  
  ----- ------------  ---------------      ----- ------------  ---------------
    12     28.466022  1 N  px                14     24.574188  1 N  pz         
    82    -22.608686  3 H  s                 57     21.287940  2 H  s          
   132     19.771081  5 H  s                107    -18.457267  4 H  s          
    83     12.225790  3 H  s                 58    -11.527258  2 H  s          
   133    -10.694996  5 H  s                108      9.970959  4 H  s          

 Vector   34  Occ=0.000000D+00  E= 3.043788D-01
              MO Center=  9.1D-02, -2.7D-03,  8.8D-02, r^2= 4.9D+00
   Bfn.  Coefficient  Atom+Function         Bfn.  Coefficient  Atom+Function  
  ----- ------------  ---------------      ----- ------------  ---------------
   132    -28.100013  5 H  s                 57     27.884918  2 H  s          
    14    -23.394911  1 N  pz                12     22.347238  1 N  px         
    13     19.518371  1 N  py               133     15.013222  5 H  s          
    58    -14.903121  2 H  s                150     -9.534439  5 H  dxx        
   153     -9.539643  5 H  dyy               78      9.478635  2 H  dyy        

 Vector   35  Occ=0.000000D+00  E= 4.431504D-01
              MO Center=  9.8D-04, -3.1D-04,  1.2D-03, r^2= 1.1D+01
   Bfn.  Coefficient  Atom+Function         Bfn.  Coefficient  Atom+Function  
  ----- ------------  ---------------      ----- ------------  ---------------
    58     43.015819  2 H  s                 83     42.912161  3 H  s          
   108     42.902996  4 H  s                133     43.019702  5 H  s          
     5    -33.015807  1 N  s                 30    -29.249711  1 N  dxx        
    33    -29.244576  1 N  dyy               35    -29.250251  1 N  dzz        
     4    -18.274810  1 N  s                 57    -17.300272  2 H  s          

 Vector   36  Occ=0.000000D+00  E= 4.795958D-01
              MO Center=  1.2D-02,  2.5D-02, -8.8D-03, r^2= 8.8D+00
   Bfn.  Coefficient  Atom+Function         Bfn.  Coefficient  Atom+Function  
  ----- ------------  ---------------      ----- ------------  ---------------
    12     16.990618  1 N  px                14    -13.907793  1 N  pz         
    13    -12.409816  1 N  py                 9     -5.887930  1 N  px         
    51     -5.176566  1 N  fxzz              58     -5.048137  2 H  s          
    83      4.994364  3 H  s                 11      4.820752  1 N  pz         
    59      4.740360  2 H  s                 84     -4.662495  3 H  s          

 Vector   37  Occ=0.000000D+00  E= 4.796144D-01
              MO Center= -1.1D-02,  1.0D-02,  1.2D-02, r^2= 8.8D+00
   Bfn.  Coefficient  Atom+Function         Bfn.  Coefficient  Atom+Function  
  ----- ------------  ---------------      ----- ------------  ---------------
    13     21.789192  1 N  py                14    -10.292859  1 N  pz         
    10     -7.542992  1 N  py                12      7.497379  1 N  px         
    52     -6.002370  1 N  fyyy              47     -5.541563  1 N  fxxy       
    54     -5.527658  1 N  fyzz              16      5.495855  1 N  py         
    83     -4.806884  3 H  s                133      4.822861  5 H  s          

 Vector   38  Occ=0.000000D+00  E= 4.796156D-01
              MO Center= -2.1D-03, -3.5D-02, -5.1D-03, r^2= 8.8D+00
   Bfn.  Coefficient  Atom+Function         Bfn.  Coefficient  Atom+Function  
  ----- ------------  ---------------      ----- ------------  ---------------
    14     18.356766  1 N  pz                12     17.075801  1 N  px         
    11     -6.358583  1 N  pz                48     -5.954354  1 N  fxxz       
     9     -5.913651  1 N  px                51     -5.348824  1 N  fxzz       
   108      5.359068  4 H  s                109     -5.031451  4 H  s          
    55     -4.768851  1 N  fzzz              17      4.632957  1 N  pz         

 Vector   39  Occ=0.000000D+00  E= 6.066640D-01
              MO Center=  5.7D-04,  3.7D-05,  5.4D-04, r^2= 5.0D+00
   Bfn.  Coefficient  Atom+Function         Bfn.  Coefficient  Atom+Function  
  ----- ------------  ---------------      ----- ------------  ---------------
    58    -20.706319  2 H  s                133    -20.710080  5 H  s          
    83    -20.561584  3 H  s                108    -20.546494  4 H  s          
    30     20.164047  1 N  dxx               33     20.158428  1 N  dyy        
    35     20.164001  1 N  dzz               57     13.754187  2 H  s          
    82     13.755696  3 H  s                107     13.755041  4 H  s          

 Vector   40  Occ=0.000000D+00  E= 6.415219D-01
              MO Center=  1.3D-01,  7.3D-03,  5.2D-02, r^2= 4.6D+00
   Bfn.  Coefficient  Atom+Function         Bfn.  Coefficient  Atom+Function  
  ----- ------------  ---------------      ----- ------------  ---------------
    93      5.540783  3 H  pz               142     -4.807578  5 H  py         
   117      4.155136  4 H  py               116     -4.123630  4 H  px         
   118     -3.630962  4 H  pz                92      3.359384  3 H  py         
    67     -2.691857  2 H  py                91      2.541359  3 H  px         
    90      2.300237  3 H  pz               154     -2.026370  5 H  dyz        

 Vector   41  Occ=0.000000D+00  E= 6.415275D-01
              MO Center= -4.2D-02,  4.7D-02,  4.1D-02, r^2= 4.6D+00
   Bfn.  Coefficient  Atom+Function         Bfn.  Coefficient  Atom+Function  
  ----- ------------  ---------------      ----- ------------  ---------------
    67      5.666698  2 H  py               116      5.087238  4 H  px         
   142     -4.804839  5 H  py               118     -3.936187  4 H  pz         
    91     -3.611965  3 H  px                68      2.804628  2 H  pz         
    76      2.459966  2 H  dxy               64      2.350382  2 H  py         
    93      2.337450  3 H  pz               113      2.111028  4 H  px         

 Vector   42  Occ=0.000000D+00  E= 6.415306D-01
              MO Center= -8.6D-02, -5.4D-02, -9.4D-02, r^2= 4.6D+00
   Bfn.  Coefficient  Atom+Function         Bfn.  Coefficient  Atom+Function  
  ----- ------------  ---------------      ----- ------------  ---------------
   141     -6.762586  5 H  px                68      6.191805  2 H  pz         
    91      3.785725  3 H  px                93     -3.136956  3 H  pz         
   138     -2.805767  5 H  px                67     -2.711338  2 H  py         
   152     -2.633706  5 H  dxz               65      2.568542  2 H  pz         
    77      2.306031  2 H  dxz              118     -2.170083  4 H  pz         

 Vector   43  Occ=0.000000D+00  E= 6.794472D-01
              MO Center=  6.9D-02,  9.0D-03,  6.6D-02, r^2= 4.6D+00
   Bfn.  Coefficient  Atom+Function         Bfn.  Coefficient  Atom+Function  
  ----- ------------  ---------------      ----- ------------  ---------------
   107    -26.841923  4 H  s                 82     24.834447  3 H  s          
    13     20.001759  1 N  py               108     12.146609  4 H  s          
    83    -11.234128  3 H  s                 14      8.339474  1 N  pz         
    31      8.235372  1 N  dxy               34      8.167147  1 N  dyz        
   128     -6.390196  4 H  dyy              132      6.208713  5 H  s          

 Vector   44  Occ=0.000000D+00  E= 6.797063D-01
              MO Center= -2.9D-04, -1.1D-02,  2.7D-03, r^2= 4.6D+00
   Bfn.  Coefficient  Atom+Function         Bfn.  Coefficient  Atom+Function  
  ----- ------------  ---------------      ----- ------------  ---------------
    82    -19.977698  3 H  s                 57     19.270835  2 H  s          
   132     17.936101  5 H  s                107    -17.364591  4 H  s          
    12     16.854962  1 N  px                14     14.736733  1 N  pz         
    83      8.880274  3 H  s                 58     -8.574180  2 H  s          
   133     -7.957886  5 H  s                108      7.718825  4 H  s          

 Vector   45  Occ=0.000000D+00  E= 6.798921D-01
              MO Center= -6.5D-02,  2.2D-03, -6.5D-02, r^2= 4.6D+00
   Bfn.  Coefficient  Atom+Function         Bfn.  Coefficient  Atom+Function  
  ----- ------------  ---------------      ----- ------------  ---------------
   132    -26.143854  5 H  s                 57     25.584977  2 H  s          
    14    -14.739253  1 N  pz                12     13.716775  1 N  px         
   133     11.446059  5 H  s                 58    -11.194690  2 H  s          
    13     10.000880  1 N  py                35      5.792191  1 N  dzz        
    30     -5.732109  1 N  dxx              153     -5.728518  5 H  dyy        

 Vector   46  Occ=0.000000D+00  E= 6.966367D-01
              MO Center= -2.9D-02,  1.3D-03, -3.1D-02, r^2= 4.6D+00
   Bfn.  Coefficient  Atom+Function         Bfn.  Coefficient  Atom+Function  
  ----- ------------  ---------------      ----- ------------  ---------------
    35     -6.475408  1 N  dzz               30      6.362500  1 N  dxx        
    53      6.054653  1 N  fyyz              49     -5.679345  1 N  fxyy       
    11      5.641156  1 N  pz                 9     -5.105732  1 N  px         
    48      4.990171  1 N  fxxz              51     -4.595656  1 N  fxzz       
    55      4.055607  1 N  fzzz             132      3.991131  5 H  s          

 Vector   47  Occ=0.000000D+00  E= 6.967233D-01
              MO Center= -8.5D-04, -4.3D-03,  1.3D-03, r^2= 4.6D+00
   Bfn.  Coefficient  Atom+Function         Bfn.  Coefficient  Atom+Function  
  ----- ------------  ---------------      ----- ------------  ---------------
    51      6.818835  1 N  fxzz              48      6.262871  1 N  fxxz       
     9      6.225811  1 N  px                33      5.627866  1 N  dyy        
    32      5.577154  1 N  dxz               11      5.379605  1 N  pz         
    46      4.968893  1 N  fxxx              31     -4.691836  1 N  dxy        
    34      4.350281  1 N  dyz               55      4.201327  1 N  fzzz       

 Vector   48  Occ=0.000000D+00  E= 6.968346D-01
              MO Center=  2.8D-02,  2.8D-03,  2.7D-02, r^2= 4.6D+00
   Bfn.  Coefficient  Atom+Function         Bfn.  Coefficient  Atom+Function  
  ----- ------------  ---------------      ----- ------------  ---------------
    31      9.059528  1 N  dxy               34      8.915766  1 N  dyz        
    10      7.628551  1 N  py                54      6.633968  1 N  fyzz       
    47      6.444060  1 N  fxxy              52      6.127824  1 N  fyyy       
   107     -3.751501  4 H  s                 50     -3.560130  1 N  fxyz       
    76     -3.514883  2 H  dxy               82      3.516159  3 H  s          

 Vector   49  Occ=0.000000D+00  E= 7.496943D-01
              MO Center= -8.4D-04, -8.7D-06, -1.0D-03, r^2= 4.7D+00
   Bfn.  Coefficient  Atom+Function         Bfn.  Coefficient  Atom+Function  
  ----- ------------  ---------------      ----- ------------  ---------------
    32     17.398713  1 N  dxz              152     -4.950864  5 H  dxz        
    77     -4.915265  2 H  dxz               34     -4.831328  1 N  dyz        
   102     -4.210526  3 H  dxz              127     -4.210698  4 H  dxz        
    68      3.764026  2 H  pz                31      3.740073  1 N  dxy        
   141      3.758762  5 H  px                33     -3.496616  1 N  dyy        

 Vector   50  Occ=0.000000D+00  E= 7.497035D-01
              MO Center= -6.9D-04, -9.8D-05, -5.0D-04, r^2= 4.7D+00
   Bfn.  Coefficient  Atom+Function         Bfn.  Coefficient  Atom+Function  
  ----- ------------  ---------------      ----- ------------  ---------------
    31     11.109223  1 N  dxy               34    -11.133316  1 N  dyz        
    33      6.537449  1 N  dyy               67      3.726755  2 H  py         
    76     -3.698411  2 H  dxy              142     -3.680899  5 H  py         
   154      3.664770  5 H  dyz               35     -3.391054  1 N  dzz        
   118      3.167640  4 H  pz                30     -3.148280  1 N  dxx        

 Vector   51  Occ=0.000000D+00  E= 7.765607D-01
              MO Center=  3.0D-04,  7.0D-03, -3.6D-05, r^2= 3.9D+00
   Bfn.  Coefficient  Atom+Function         Bfn.  Coefficient  Atom+Function  
  ----- ------------  ---------------      ----- ------------  ---------------
   151      5.042571  5 H  dxy               79     -5.001478  2 H  dyz        
    47     -4.565946  1 N  fxxy              54      4.439357  1 N  fyzz       
   139     -4.166392  5 H  py                64      4.132241  2 H  py         
   129      3.557327  4 H  dyz              101     -3.352614  3 H  dxy        
   115     -3.035636  4 H  pz                90      2.991320  3 H  pz         

 Vector   52  Occ=0.000000D+00  E= 7.765677D-01
              MO Center= -1.6D-02, -5.1D-03, -1.1D-02, r^2= 3.9D+00
   Bfn.  Coefficient  Atom+Function         Bfn.  Coefficient  Atom+Function  
  ----- ------------  ---------------      ----- ------------  ---------------
   102      3.878326  3 H  dxz              127     -3.626017  4 H  dxz        
   138      3.411526  5 H  px                88     -3.310382  3 H  px         
    65     -3.255893  2 H  pz                51     -3.171397  1 N  fxzz       
   115      3.120763  4 H  pz               126      3.042650  4 H  dxy        
    47     -3.003310  1 N  fxxy             104      2.930938  3 H  dyz        

 Vector   53  Occ=0.000000D+00  E= 7.765838D-01
              MO Center=  1.6D-02, -1.8D-03,  1.1D-02, r^2= 3.9D+00
   Bfn.  Coefficient  Atom+Function         Bfn.  Coefficient  Atom+Function  
  ----- ------------  ---------------      ----- ------------  ---------------
    50      5.565433  1 N  fxyz             127      5.187270  4 H  dxz        
   102     -5.155655  3 H  dxz               90      4.058962  3 H  pz         
   113     -4.005933  4 H  px                65     -3.920167  2 H  pz         
   138      3.894143  5 H  px                79      3.736838  2 H  dyz        
   151      3.476644  5 H  dxy               77     -3.100491  2 H  dxz        

 Vector   54  Occ=0.000000D+00  E= 8.371186D-01
              MO Center= -3.8D-05, -1.1D-05,  2.0D-06, r^2= 3.6D+00
   Bfn.  Coefficient  Atom+Function         Bfn.  Coefficient  Atom+Function  
  ----- ------------  ---------------      ----- ------------  ---------------
   104     -2.674945  3 H  dyz               26      2.550848  1 N  dxz        
   126      2.540264  4 H  dxy              152      2.432694  5 H  dxz        
    77      2.332546  2 H  dxz               79      1.681300  2 H  dyz        
   151     -1.669246  5 H  dxy              128     -1.388690  4 H  dyy        
    65      1.305095  2 H  pz               103     -1.303681  3 H  dyy        

 Vector   55  Occ=0.000000D+00  E= 8.371304D-01
              MO Center= -7.5D-05,  3.4D-06, -4.2D-05, r^2= 3.6D+00
   Bfn.  Coefficient  Atom+Function         Bfn.  Coefficient  Atom+Function  
  ----- ------------  ---------------      ----- ------------  ---------------
    76      3.186867  2 H  dxy              154     -3.074168  5 H  dyz        
   130     -2.024027  4 H  dzz              100     -1.994051  3 H  dxx        
    25      1.631870  1 N  dxy               28     -1.636858  1 N  dyz        
    64      1.291455  2 H  py               139     -1.275570  5 H  py         
   125      1.131840  4 H  dxx              105      1.095510  3 H  dzz        

 Vector   56  Occ=0.000000D+00  E= 9.317525D-01
              MO Center= -1.1D-01, -1.7D-02, -1.0D-01, r^2= 4.0D+00
   Bfn.  Coefficient  Atom+Function         Bfn.  Coefficient  Atom+Function  
  ----- ------------  ---------------      ----- ------------  ---------------
    13     56.232118  1 N  py               107    -44.521145  4 H  s          
    82     40.788164  3 H  s                 14     26.778516  1 N  pz         
   108     26.452594  4 H  s                 83    -24.240326  3 H  s          
    12    -18.266675  1 N  px               125    -18.335556  4 H  dxx        
   130    -17.044926  4 H  dzz              105     16.958645  3 H  dzz        

 Vector   57  Occ=0.000000D+00  E= 9.319159D-01
              MO Center=  4.6D-03,  2.0D-02, -4.4D-03, r^2= 4.1D+00
   Bfn.  Coefficient  Atom+Function         Bfn.  Coefficient  Atom+Function  
  ----- ------------  ---------------      ----- ------------  ---------------
    12     49.223698  1 N  px                14     42.302373  1 N  pz         
    82    -33.589198  3 H  s                 57     32.723760  2 H  s          
   132     29.780135  5 H  s                107    -28.889741  4 H  s          
    83     19.675512  3 H  s                 58    -19.194275  2 H  s          
   133    -17.461841  5 H  s                108     16.917390  4 H  s          

 Vector   58  Occ=0.000000D+00  E= 9.320780D-01
              MO Center=  1.0D-01, -3.2D-03,  1.1D-01, r^2= 4.0D+00
   Bfn.  Coefficient  Atom+Function         Bfn.  Coefficient  Atom+Function  
  ----- ------------  ---------------      ----- ------------  ---------------
   132    -43.470992  5 H  s                 57     42.298722  2 H  s          
    14    -41.557809  1 N  pz                12     38.434115  1 N  px         
    13     32.258034  1 N  py               133     25.194184  5 H  s          
    58    -24.516959  2 H  s                153    -18.170002  5 H  dyy        
   150    -18.034923  5 H  dxx               78     17.746577  2 H  dyy        

 Vector   59  Occ=0.000000D+00  E= 1.038818D+00
              MO Center= -3.2D-04, -3.9D-05, -1.2D-04, r^2= 6.9D+00
   Bfn.  Coefficient  Atom+Function         Bfn.  Coefficient  Atom+Function  
  ----- ------------  ---------------      ----- ------------  ---------------
    58     50.576101  2 H  s                 83     50.480299  3 H  s          
   108     50.468952  4 H  s                133     50.583813  5 H  s          
    30    -40.629033  1 N  dxx               33    -40.620922  1 N  dyy        
    35    -40.630567  1 N  dzz                5    -29.318084  1 N  s          
     4    -21.839620  1 N  s                 57    -20.991331  2 H  s          

 Vector   60  Occ=0.000000D+00  E= 1.084699D+00
              MO Center= -2.0D-01, -5.6D-03, -1.5D-01, r^2= 4.6D+00
   Bfn.  Coefficient  Atom+Function         Bfn.  Coefficient  Atom+Function  
  ----- ------------  ---------------      ----- ------------  ---------------
    12     37.897856  1 N  px                14    -35.673184  1 N  pz         
    57     35.508900  2 H  s                132    -32.757403  5 H  s          
    58    -20.810898  2 H  s                133     19.177681  5 H  s          
    80     16.201960  2 H  dzz              150    -15.566581  5 H  dxx        
    78     12.633583  2 H  dyy              153    -11.086198  5 H  dyy        

 Vector   61  Occ=0.000000D+00  E= 1.084723D+00
              MO Center=  2.4D-02, -1.0D-02, -2.6D-02, r^2= 4.7D+00
   Bfn.  Coefficient  Atom+Function         Bfn.  Coefficient  Atom+Function  
  ----- ------------  ---------------      ----- ------------  ---------------
    14     37.800301  1 N  pz                12     36.300820  1 N  px         
   132     26.428719  5 H  s                 82    -25.612187  3 H  s          
   107    -23.033804  4 H  s                 57     22.201053  2 H  s          
   133    -15.446961  5 H  s                 83     14.916820  3 H  s          
   108     13.427533  4 H  s                 58    -12.929191  2 H  s          

 Vector   62  Occ=0.000000D+00  E= 1.084737D+00
              MO Center=  1.7D-01,  1.6D-02,  1.8D-01, r^2= 4.6D+00
   Bfn.  Coefficient  Atom+Function         Bfn.  Coefficient  Atom+Function  
  ----- ------------  ---------------      ----- ------------  ---------------
    13     51.968830  1 N  py               107    -35.297987  4 H  s          
    82     33.117164  3 H  s                108     20.492294  4 H  s          
    83    -19.233177  3 H  s                125    -13.557404  4 H  dxx        
   105     12.951034  3 H  dzz              128     -9.826276  4 H  dyy        
   101      9.589568  3 H  dxy              129      9.585504  4 H  dyz        

 Vector   63  Occ=0.000000D+00  E= 1.249129D+00
              MO Center=  3.2D-02, -9.8D-04,  3.0D-02, r^2= 4.5D+00
   Bfn.  Coefficient  Atom+Function         Bfn.  Coefficient  Atom+Function  
  ----- ------------  ---------------      ----- ------------  ---------------
    57     47.517736  2 H  s                132    -47.622550  5 H  s          
    58    -10.865498  2 H  s                133     10.889240  5 H  s          
    80      9.713816  2 H  dzz              150     -9.755032  5 H  dxx        
    11     -8.770914  1 N  pz                53     -8.460278  1 N  fyyz       
     9      8.368419  1 N  px                48     -8.343158  1 N  fxxz       

 Vector   64  Occ=0.000000D+00  E= 1.249156D+00
              MO Center= -2.9D-03,  6.5D-03, -1.1D-03, r^2= 4.5D+00
   Bfn.  Coefficient  Atom+Function         Bfn.  Coefficient  Atom+Function  
  ----- ------------  ---------------      ----- ------------  ---------------
    82    -37.171960  3 H  s                 57     34.089348  2 H  s          
   132     33.312888  5 H  s                107    -30.062918  4 H  s          
     9      9.582026  1 N  px                51      9.263686  1 N  fxzz       
    46      9.054517  1 N  fxxx              49      8.944874  1 N  fxyy       
    11      8.552811  1 N  pz                83      8.574302  3 H  s          

 Vector   65  Occ=0.000000D+00  E= 1.249180D+00
              MO Center= -3.1D-02, -5.5D-03, -3.1D-02, r^2= 4.5D+00
   Bfn.  Coefficient  Atom+Function         Bfn.  Coefficient  Atom+Function  
  ----- ------------  ---------------      ----- ------------  ---------------
   107     49.929575  4 H  s                 82    -44.890504  3 H  s          
    10    -12.066220  1 N  py               108    -11.548739  4 H  s          
    47    -11.441948  1 N  fxxy              52    -11.411122  1 N  fyyy       
    54    -11.463043  1 N  fyzz              83     10.376224  3 H  s          
    13    -10.186828  1 N  py               125      8.487707  4 H  dxx        

 Vector   66  Occ=0.000000D+00  E= 1.258645D+00
              MO Center=  9.2D-04, -2.1D-04,  1.1D-03, r^2= 3.6D+00
   Bfn.  Coefficient  Atom+Function         Bfn.  Coefficient  Atom+Function  
  ----- ------------  ---------------      ----- ------------  ---------------
    31     12.132029  1 N  dxy               34    -12.150877  1 N  dyz        
    33      7.188503  1 N  dyy               76     -5.584508  2 H  dxy        
   154      5.565830  5 H  dyz               64     -5.438129  2 H  py         
   139      5.365811  5 H  py               104      5.066789  3 H  dyz        
   101     -5.031759  3 H  dxy              126     -5.054245  4 H  dxy        

 Vector   67  Occ=0.000000D+00  E= 1.258688D+00
              MO Center=  3.5D-04,  1.6D-04,  1.0D-03, r^2= 3.6D+00
   Bfn.  Coefficient  Atom+Function         Bfn.  Coefficient  Atom+Function  
  ----- ------------  ---------------      ----- ------------  ---------------
    32     19.035416  1 N  dxz               77     -8.226844  2 H  dxz        
   152     -8.247061  5 H  dxz              102     -7.798508  3 H  dxz        
   127     -7.798489  4 H  dxz               26     -6.612892  1 N  dxz        
    65     -5.499170  2 H  pz               138     -5.497482  5 H  px         
    34     -5.391718  1 N  dyz               90      5.018264  3 H  pz         

 Vector   68  Occ=0.000000D+00  E= 1.320294D+00
              MO Center= -4.7D-04, -3.0D-05, -4.7D-04, r^2= 2.6D+00
   Bfn.  Coefficient  Atom+Function         Bfn.  Coefficient  Atom+Function  
  ----- ------------  ---------------      ----- ------------  ---------------
     5      3.284737  1 N  s                 49     -3.192253  1 N  fxyy       
    33     -2.976729  1 N  dyy               30     -2.960667  1 N  dxx        
    35     -2.960304  1 N  dzz               53     -2.861935  1 N  fyyz       
    54     -2.596305  1 N  fyzz              47      2.322899  1 N  fxxy       
    57     -2.155366  2 H  s                 82     -2.157128  3 H  s          

 Vector   69  Occ=0.000000D+00  E= 1.526484D+00
              MO Center=  5.9D-04,  1.7D-05,  5.4D-04, r^2= 3.4D+00
   Bfn.  Coefficient  Atom+Function         Bfn.  Coefficient  Atom+Function  
  ----- ------------  ---------------      ----- ------------  ---------------
    30     34.984382  1 N  dxx               33     34.955412  1 N  dyy        
    35     34.984668  1 N  dzz               58    -34.708765  2 H  s          
   133    -34.724838  5 H  s                 83    -34.250252  3 H  s          
   108    -34.202785  4 H  s                 82     24.400807  3 H  s          
   107     24.411182  4 H  s                 57     24.277670  2 H  s          

 Vector   70  Occ=0.000000D+00  E= 1.603795D+00
              MO Center=  1.2D-01,  3.5D-03,  4.2D-02, r^2= 2.8D+00
   Bfn.  Coefficient  Atom+Function         Bfn.  Coefficient  Atom+Function  
  ----- ------------  ---------------      ----- ------------  ---------------
    90      4.994324  3 H  pz               139     -4.128101  5 H  py         
    93      4.070769  3 H  pz               113     -3.631486  4 H  px         
   114      3.482270  4 H  py               142     -3.365650  5 H  py         
   115     -2.959333  4 H  pz               116     -2.959896  4 H  px         
   117      2.839251  4 H  py                89      2.749423  3 H  py         

 Vector   71  Occ=0.000000D+00  E= 1.603812D+00
              MO Center= -4.7D-02,  7.4D-02,  3.1D-02, r^2= 2.8D+00
   Bfn.  Coefficient  Atom+Function         Bfn.  Coefficient  Atom+Function  
  ----- ------------  ---------------      ----- ------------  ---------------
    64      4.487389  2 H  py               113      4.457402  4 H  px         
   139     -4.151752  5 H  py                67      3.659033  2 H  py         
   115     -3.646006  4 H  pz               116      3.634182  4 H  px         
   142     -3.384938  5 H  py                65      3.119427  2 H  pz         
   118     -2.972979  4 H  pz                76      2.815818  2 H  dxy        

 Vector   72  Occ=0.000000D+00  E= 1.603817D+00
              MO Center= -7.3D-02, -7.7D-02, -7.3D-02, r^2= 2.8D+00
   Bfn.  Coefficient  Atom+Function         Bfn.  Coefficient  Atom+Function  
  ----- ------------  ---------------      ----- ------------  ---------------
   138      5.560276  5 H  px                65     -4.857017  2 H  pz         
   141      4.533769  5 H  px                68     -3.960732  2 H  pz         
    88     -3.834384  3 H  px                64      3.179675  2 H  py         
    91     -3.126042  3 H  px               152      2.937621  5 H  dxz        
    67      2.592631  2 H  py                90      2.532772  3 H  pz         

 Vector   73  Occ=0.000000D+00  E= 1.690579D+00
              MO Center=  1.1D-01,  1.8D-02,  1.1D-01, r^2= 2.8D+00
   Bfn.  Coefficient  Atom+Function         Bfn.  Coefficient  Atom+Function  
  ----- ------------  ---------------      ----- ------------  ---------------
   107     35.165898  4 H  s                 82    -31.897758  3 H  s          
    13    -18.751883  1 N  py               108    -11.841139  4 H  s          
    83     10.732186  3 H  s                 31     -9.474756  1 N  dxy        
    34     -9.498101  1 N  dyz               50      9.026854  1 N  fxyz       
   125      7.169225  4 H  dxx              105     -6.630806  3 H  dzz        

 Vector   74  Occ=0.000000D+00  E= 1.690766D+00
              MO Center=  1.0D-03, -2.1D-02, -5.7D-04, r^2= 2.8D+00
   Bfn.  Coefficient  Atom+Function         Bfn.  Coefficient  Atom+Function  
  ----- ------------  ---------------      ----- ------------  ---------------
    82    -26.099076  3 H  s                 57     24.326979  2 H  s          
   132     23.370079  5 H  s                107    -21.525817  4 H  s          
    12     14.950124  1 N  px                14     13.239593  1 N  pz         
    83      8.585110  3 H  s                 58     -8.002447  2 H  s          
    51      7.851183  1 N  fxzz              48      7.761875  1 N  fxxz       

 Vector   75  Occ=0.000000D+00  E= 1.690942D+00
              MO Center= -1.1D-01,  3.7D-03, -1.1D-01, r^2= 2.8D+00
   Bfn.  Coefficient  Atom+Function         Bfn.  Coefficient  Atom+Function  
  ----- ------------  ---------------      ----- ------------  ---------------
   132    -33.947005  5 H  s                 57     33.523828  2 H  s          
    14    -13.839742  1 N  pz                12     12.994511  1 N  px         
   133     10.885715  5 H  s                 58    -10.737679  2 H  s          
   153     -7.903522  5 H  dyy               78      7.859644  2 H  dyy        
    53     -6.789089  1 N  fyyz              30     -6.736003  1 N  dxx        

 Vector   76  Occ=0.000000D+00  E= 1.859191D+00
              MO Center=  1.6D-02,  4.1D-03,  1.8D-02, r^2= 2.7D+00
   Bfn.  Coefficient  Atom+Function         Bfn.  Coefficient  Atom+Function  
  ----- ------------  ---------------      ----- ------------  ---------------
    47     15.330289  1 N  fxxy              52     15.246612  1 N  fyyy       
    54     15.152169  1 N  fyzz              10     14.621545  1 N  py         
   114    -12.362217  4 H  py                89    -11.902891  3 H  py         
    64     -8.085848  2 H  py               139     -7.908976  5 H  py         
    13     -5.887739  1 N  py               115     -5.240770  4 H  pz         

 Vector   77  Occ=0.000000D+00  E= 1.859238D+00
              MO Center=  2.1D-03, -4.1D-03, -2.9D-03, r^2= 2.7D+00
   Bfn.  Coefficient  Atom+Function         Bfn.  Coefficient  Atom+Function  
  ----- ------------  ---------------      ----- ------------  ---------------
    49     12.362862  1 N  fxyy              53     11.784234  1 N  fyyz       
    46     11.256927  1 N  fxxx              55     11.122650  1 N  fzzz       
     9     10.712731  1 N  px                11     10.442595  1 N  pz         
    51      9.673818  1 N  fxzz             140     -9.611201  5 H  pz         
    48      9.267440  1 N  fxxz              63     -9.287984  2 H  px         

 Vector   78  Occ=0.000000D+00  E= 1.859259D+00
              MO Center= -2.0D-02, -7.1D-05, -1.6D-02, r^2= 2.7D+00
   Bfn.  Coefficient  Atom+Function         Bfn.  Coefficient  Atom+Function  
  ----- ------------  ---------------      ----- ------------  ---------------
    46     11.547536  1 N  fxxx              55    -11.181104  1 N  fzzz       
    63    -11.124378  2 H  px               140     10.692841  5 H  pz         
     9     10.579969  1 N  px                48    -10.471511  1 N  fxxz       
    51     10.513882  1 N  fxzz              11    -10.292284  1 N  pz         
    49      9.941344  1 N  fxyy              53     -9.571457  1 N  fyyz       

 Vector   79  Occ=0.000000D+00  E= 1.930263D+00
              MO Center=  3.3D-02, -5.5D-03,  2.5D-02, r^2= 2.4D+00
   Bfn.  Coefficient  Atom+Function         Bfn.  Coefficient  Atom+Function  
  ----- ------------  ---------------      ----- ------------  ---------------
    50     19.167961  1 N  fxyz              65    -17.019968  2 H  pz         
   138     16.831274  5 H  px                51    -13.587303  1 N  fxzz       
    48     12.602548  1 N  fxxz             113    -12.375277  4 H  px         
    90     11.642199  3 H  pz                53     -7.036102  1 N  fyyz       
    49      6.394126  1 N  fxyy              77     -3.816126  2 H  dxz        

 Vector   80  Occ=0.000000D+00  E= 1.930284D+00
              MO Center=  1.6D-02,  4.3D-02, -5.0D-02, r^2= 2.4D+00
   Bfn.  Coefficient  Atom+Function         Bfn.  Coefficient  Atom+Function  
  ----- ------------  ---------------      ----- ------------  ---------------
    47     19.178972  1 N  fxxy              64    -17.039798  2 H  py         
    88     15.224194  3 H  px               113    -12.254170  4 H  px         
    89     10.482100  3 H  py                51      7.124485  1 N  fxzz       
   138     -6.940350  5 H  px                49      6.850855  1 N  fxyy       
    52     -6.411483  1 N  fyyy             114      6.347385  4 H  py         

 Vector   81  Occ=0.000000D+00  E= 1.930288D+00
              MO Center= -4.8D-02, -3.7D-02,  2.5D-02, r^2= 2.4D+00
   Bfn.  Coefficient  Atom+Function         Bfn.  Coefficient  Atom+Function  
  ----- ------------  ---------------      ----- ------------  ---------------
    54     19.052855  1 N  fyzz             139    -17.837264  5 H  py         
   115    -14.690552  4 H  pz                90     13.585488  3 H  pz         
   114      9.627275  4 H  py                53     -9.218436  1 N  fyyz       
    47     -5.619616  1 N  fxxy              48     -5.462092  1 N  fxxz       
   151      5.382131  5 H  dxy               64      5.329239  2 H  py         

 Vector   82  Occ=0.000000D+00  E= 2.057344D+00
              MO Center= -6.7D-02, -1.5D-02, -6.6D-02, r^2= 2.6D+00
   Bfn.  Coefficient  Atom+Function         Bfn.  Coefficient  Atom+Function  
  ----- ------------  ---------------      ----- ------------  ---------------
    13     36.817377  1 N  py               108     13.826941  4 H  s          
   125    -13.762465  4 H  dxx               14     13.677038  1 N  pz         
   130    -13.081123  4 H  dzz              105     12.266513  3 H  dzz        
    83    -12.133275  3 H  s                107    -11.793194  4 H  s          
    34     11.641544  1 N  dyz              100     11.640577  3 H  dxx        

 Vector   83  Occ=0.000000D+00  E= 2.057452D+00
              MO Center=  3.6D-03,  1.9D-02, -3.9D-03, r^2= 2.6D+00
   Bfn.  Coefficient  Atom+Function         Bfn.  Coefficient  Atom+Function  
  ----- ------------  ---------------      ----- ------------  ---------------
[...]
    52     20.520477  1 N  fyyy              13    -18.263334  1 N  py         
    54     18.002821  1 N  fyzz             132    -17.914635  5 H  s          
    47     17.815492  1 N  fxxy              88    -14.114265  3 H  px         

 Vector  131  Occ=0.000000D+00  E= 6.988903D+00
              MO Center= -4.3D-02,  6.0D-03, -3.8D-02, r^2= 9.2D-01
   Bfn.  Coefficient  Atom+Function         Bfn.  Coefficient  Atom+Function  
  ----- ------------  ---------------      ----- ------------  ---------------
    40      8.437648  1 N  fxyz              41     -7.795342  1 N  fxzz       
    38      6.983625  1 N  fxxz              62     -4.560298  2 H  pz         
   135      4.561030  5 H  px                65     -3.981121  2 H  pz         
   138      3.982124  5 H  px                71     -3.647303  2 H  dxz        
   146      3.645321  5 H  dxz               39      2.265824  1 N  fxyy       

 Vector  132  Occ=0.000000D+00  E= 6.989021D+00
              MO Center= -1.9D-02, -1.7D-02,  3.0D-02, r^2= 9.2D-01
   Bfn.  Coefficient  Atom+Function         Bfn.  Coefficient  Atom+Function  
  ----- ------------  ---------------      ----- ------------  ---------------
    37     10.069721  1 N  fxxy              44     -5.369716  1 N  fyzz       
    61     -4.415145  2 H  py                39      4.008942  1 N  fxyy       
    64     -3.855883  2 H  py               110     -3.382660  4 H  px         
    85      3.328796  3 H  px                70     -2.970358  2 H  dxy        
   113     -2.952568  4 H  px                88      2.906872  3 H  px         

 Vector  133  Occ=0.000000D+00  E= 6.989113D+00
              MO Center=  6.2D-02,  1.1D-02,  7.6D-03, r^2= 9.2D-01
   Bfn.  Coefficient  Atom+Function         Bfn.  Coefficient  Atom+Function  
  ----- ------------  ---------------      ----- ------------  ---------------
    44      8.154233  1 N  fyzz              40      5.699635  1 N  fxyz       
    43     -5.302374  1 N  fyyz              87      3.785271  3 H  pz         
   136     -3.788535  5 H  py                42     -3.698455  1 N  fyyy       
    90      3.302893  3 H  pz               139     -3.308263  5 H  py         
   112     -3.003840  4 H  pz                37      2.948770  1 N  fxxy       

 Vector  134  Occ=0.000000D+00  E= 7.327750D+00
              MO Center= -1.1D-01, -1.5D-02, -7.5D-02, r^2= 1.1D+00
   Bfn.  Coefficient  Atom+Function         Bfn.  Coefficient  Atom+Function  
  ----- ------------  ---------------      ----- ------------  ---------------
    57     35.787952  2 H  s                132    -32.624838  5 H  s          
     9     25.970093  1 N  px                11    -24.707730  1 N  pz         
    63     19.425536  2 H  px                82    -19.259347  3 H  s          
   140    -17.539330  5 H  pz               107     16.108502  4 H  s          
    12    -12.854438  1 N  px                51     12.445851  1 N  fxzz       

 Vector  135  Occ=0.000000D+00  E= 7.327912D+00
              MO Center=  1.3D-02,  1.7D-02, -1.4D-02, r^2= 1.1D+00
   Bfn.  Coefficient  Atom+Function         Bfn.  Coefficient  Atom+Function  
  ----- ------------  ---------------      ----- ------------  ---------------
   132    -29.278868  5 H  s                107     28.157382  4 H  s          
    11    -26.677476  1 N  pz                82     26.180488  3 H  s          
     9    -25.271626  1 N  px                57    -25.265081  2 H  s          
    48    -16.823578  1 N  fxxz             114    -16.235365  4 H  py         
    89     15.414692  3 H  py                51    -14.918749  1 N  fxzz       

 Vector  136  Occ=0.000000D+00  E= 7.328003D+00
              MO Center=  9.4D-02, -2.4D-03,  8.9D-02, r^2= 1.1D+00
   Bfn.  Coefficient  Atom+Function         Bfn.  Coefficient  Atom+Function  
  ----- ------------  ---------------      ----- ------------  ---------------
    10     35.924623  1 N  py                82     34.237619  3 H  s          
   107    -34.293720  4 H  s                 13    -17.895667  1 N  py         
    57     17.721653  2 H  s                132    -17.659243  5 H  s          
    88    -15.324292  3 H  px               115     15.372292  4 H  pz         
    52     12.086877  1 N  fyyy              50    -11.872046  1 N  fxyz       

 Vector  137  Occ=0.000000D+00  E= 8.102723D+00
              MO Center=  8.7D-06, -5.0D-06,  1.5D-05, r^2= 8.4D-01
   Bfn.  Coefficient  Atom+Function         Bfn.  Coefficient  Atom+Function  
  ----- ------------  ---------------      ----- ------------  ---------------
     3     34.295879  1 N  s                 57     -8.167285  2 H  s          
    82     -8.179755  3 H  s                107     -8.179446  4 H  s          
   132     -8.170004  5 H  s                 24      8.105564  1 N  dxx        
    27      8.095642  1 N  dyy               29      8.103998  1 N  dzz        
     4     -6.529664  1 N  s                 63     -5.028952  2 H  px         

 Vector  138  Occ=0.000000D+00  E= 8.489418D+00
              MO Center= -1.6D-02, -1.3D-02,  9.0D-03, r^2= 7.7D-01
   Bfn.  Coefficient  Atom+Function         Bfn.  Coefficient  Atom+Function  
  ----- ------------  ---------------      ----- ------------  ---------------
     9     18.451092  1 N  px                57     12.117841  2 H  s          
    82     -8.643490  3 H  s                 41      6.381827  1 N  fxzz       
    46      5.413054  1 N  fxxx              49      5.407604  1 N  fxyy       
    51      5.374029  1 N  fxzz             107     -4.134725  4 H  s          
   138     -4.080538  5 H  px                43     -3.857776  1 N  fyyz       

 Vector  139  Occ=0.000000D+00  E= 8.489441D+00
              MO Center=  2.8D-03,  1.0D-02, -2.4D-02, r^2= 7.7D-01
   Bfn.  Coefficient  Atom+Function         Bfn.  Coefficient  Atom+Function  
  ----- ------------  ---------------      ----- ------------  ---------------
    11     18.489531  1 N  pz               132     13.167729  5 H  s          
   107     -6.332932  4 H  s                 38      5.436598  1 N  fxxz       
    55      5.425890  1 N  fzzz              48      5.389652  1 N  fxxz       
    53      5.407880  1 N  fyyz              39     -4.626450  1 N  fxyy       
    57     -4.546832  2 H  s                 40     -4.221831  1 N  fxyz       

 Vector  140  Occ=0.000000D+00  E= 8.489519D+00
              MO Center=  1.3D-02,  2.5D-03,  1.5D-02, r^2= 7.7D-01
   Bfn.  Coefficient  Atom+Function         Bfn.  Coefficient  Atom+Function  
  ----- ------------  ---------------      ----- ------------  ---------------
    10     18.699073  1 N  py               107    -11.043495  4 H  s          
    82      9.978702  3 H  s                 40     -8.766950  1 N  fxyz       
    47      5.478695  1 N  fxxy              52      5.479162  1 N  fyyy       
    54      5.477300  1 N  fyzz             139     -3.907528  5 H  py         
    64     -3.841343  2 H  py                19     -3.813460  1 N  dxy        

 Vector  141  Occ=0.000000D+00  E= 8.514910D+00
              MO Center= -1.7D-04, -9.9D-06, -1.2D-04, r^2= 7.7D-01
   Bfn.  Coefficient  Atom+Function         Bfn.  Coefficient  Atom+Function  
  ----- ------------  ---------------      ----- ------------  ---------------
    26     12.363352  1 N  dxz               20      5.387390  1 N  dxz        
   138      4.988187  5 H  px                65      4.962091  2 H  pz         
    90     -4.133835  3 H  pz               113     -4.151671  4 H  px         
    27     -3.058644  1 N  dyy              114      2.509792  4 H  py         
    28     -2.350162  1 N  dyz               89     -2.341617  3 H  py         

 Vector  142  Occ=0.000000D+00  E= 8.514937D+00
              MO Center= -6.5D-05, -1.7D-04,  7.5D-05, r^2= 7.7D-01
   Bfn.  Coefficient  Atom+Function         Bfn.  Coefficient  Atom+Function  
  ----- ------------  ---------------      ----- ------------  ---------------
    28     -8.273453  1 N  dyz               25      8.153637  1 N  dxy        
    64      4.930623  2 H  py               139     -4.883230  5 H  py         
    27      4.254939  1 N  dyy              115      3.946764  4 H  pz         
    88      3.860778  3 H  px                22     -3.600347  1 N  dyz        
    19      3.553263  1 N  dxy               90     -2.627835  3 H  pz         

 Vector  143  Occ=0.000000D+00  E= 1.216061D+01
              MO Center=  1.3D-05, -2.1D-06,  3.7D-06, r^2= 6.0D-01
   Bfn.  Coefficient  Atom+Function         Bfn.  Coefficient  Atom+Function  
  ----- ------------  ---------------      ----- ------------  ---------------
     3     12.201756  1 N  s                  2     -9.899181  1 N  s          
    24      9.320312  1 N  dxx               27      9.319244  1 N  dyy        
    29      9.319933  1 N  dzz               58     -7.886865  2 H  s          
    83     -7.875352  3 H  s                108     -7.874237  4 H  s          
   133     -7.886991  5 H  s                 30      6.205378  1 N  dxx        

 Vector  144  Occ=0.000000D+00  E= 1.394347D+01
              MO Center=  4.5D-03,  2.8D-04,  3.8D-03, r^2= 6.3D-01
   Bfn.  Coefficient  Atom+Function         Bfn.  Coefficient  Atom+Function  
  ----- ------------  ---------------      ----- ------------  ---------------
    11    -37.381593  1 N  pz                 9     35.879720  1 N  px         
    57     33.349285  2 H  s                132    -32.448533  5 H  s          
    82    -23.238597  3 H  s                107     22.343287  4 H  s          
    10    -18.612442  1 N  py                14     17.052553  1 N  pz         
    12    -16.359087  1 N  px                63     15.301486  2 H  px         

 Vector  145  Occ=0.000000D+00  E= 1.394419D+01
              MO Center= -7.0D-04,  1.1D-04,  6.2D-04, r^2= 6.3D-01
   Bfn.  Coefficient  Atom+Function         Bfn.  Coefficient  Atom+Function  
  ----- ------------  ---------------      ----- ------------  ---------------
     9     39.189192  1 N  px                11     38.661994  1 N  pz         
   132     29.420673  5 H  s                 82    -28.611810  3 H  s          
   107    -27.774391  4 H  s                 57     27.294055  2 H  s          
    48     18.561415  1 N  fxxz              12    -17.920937  1 N  px         
    14    -17.663994  1 N  pz                51     17.691082  1 N  fxzz       

 Vector  146  Occ=0.000000D+00  E= 1.394470D+01
              MO Center= -3.8D-03, -4.0D-04, -4.5D-03, r^2= 6.3D-01
   Bfn.  Coefficient  Atom+Function         Bfn.  Coefficient  Atom+Function  
  ----- ------------  ---------------      ----- ------------  ---------------
    10     51.830283  1 N  py               107    -33.553418  4 H  s          
    82     32.223416  3 H  s                 13    -23.744372  1 N  py         
    57     23.414154  2 H  s                132    -22.062106  5 H  s          
    52     15.726819  1 N  fyyy             115     15.448809  4 H  pz         
    88    -15.257548  3 H  px                 9     14.499524  1 N  px         

 Vector  147  Occ=0.000000D+00  E= 1.518007D+01
              MO Center=  8.2D-05,  4.7D-06,  6.9D-05, r^2= 8.6D-01
   Bfn.  Coefficient  Atom+Function         Bfn.  Coefficient  Atom+Function  
  ----- ------------  ---------------      ----- ------------  ---------------
    57     20.140700  2 H  s                 82     20.201087  3 H  s          
   107     20.201647  4 H  s                132     20.150749  5 H  s          
     4     18.013753  1 N  s                 30     17.405658  1 N  dxx        
    33     17.401003  1 N  dyy               35     17.405199  1 N  dzz        
    58    -17.344691  2 H  s                 83    -17.302330  3 H  s          

 Vector  148  Occ=0.000000D+00  E= 1.825829D+01
              MO Center=  1.9D-02,  1.3D-01, -2.1D-01, r^2= 4.1D-01
   Bfn.  Coefficient  Atom+Function         Bfn.  Coefficient  Atom+Function  
  ----- ------------  ---------------      ----- ------------  ---------------
    11     29.018008  1 N  pz               132     24.122668  5 H  s          
   107    -14.244978  4 H  s                 14    -12.636643  1 N  pz         
    57     -9.810328  2 H  s                140      9.565237  5 H  pz         
    28      8.734743  1 N  dyz              131      8.728036  5 H  s          
     9     -7.329943  1 N  px                29     -7.035204  1 N  dzz        

 Vector  149  Occ=0.000000D+00  E= 1.825833D+01
              MO Center= -7.0D-02,  1.2D-01,  1.5D-01, r^2= 4.3D-01
   Bfn.  Coefficient  Atom+Function         Bfn.  Coefficient  Atom+Function  
  ----- ------------  ---------------      ----- ------------  ---------------
    10     24.624959  1 N  py               107    -21.333554  4 H  s          
    57     18.121876  2 H  s                  9     17.237413  1 N  px         
    13    -10.693733  1 N  py                82      8.437101  3 H  s          
    28      8.192845  1 N  dyz              106     -7.718771  4 H  s          
    12     -7.512612  1 N  px               114      7.194457  4 H  py         

 Vector  150  Occ=0.000000D+00  E= 1.825840D+01
              MO Center=  5.2D-02, -2.5D-01,  6.4D-02, r^2= 4.0D-01
   Bfn.  Coefficient  Atom+Function         Bfn.  Coefficient  Atom+Function  
  ----- ------------  ---------------      ----- ------------  ---------------
    82    -24.286826  3 H  s                  9     23.568694  1 N  px         
    10    -16.990996  1 N  py                57     15.380379  2 H  s          
    25    -11.279388  1 N  dxy               12    -10.252379  1 N  px         
    81     -8.791661  3 H  s                 11      7.872851  1 N  pz         
    13      7.391407  1 N  py                89     -7.261527  3 H  py         

 Vector  151  Occ=0.000000D+00  E= 5.297127D+01
              MO Center=  1.2D-05, -7.2D-07,  6.2D-06, r^2= 3.3D-01
   Bfn.  Coefficient  Atom+Function         Bfn.  Coefficient  Atom+Function  
  ----- ------------  ---------------      ----- ------------  ---------------
     2     38.504464  1 N  s                  1     19.269298  1 N  s          
    58     13.542545  2 H  s                 83     13.483467  3 H  s          
   108     13.477557  4 H  s                133     13.544330  5 H  s          
    57    -13.121287  2 H  s                 82    -13.131961  3 H  s          
   107    -13.131855  4 H  s                132    -13.121358  5 H  s          


------------------------------------------------------------
EAF file 0: "./nh4_aug-cc-pvtz.aoints.0" size=905445376 bytes
------------------------------------------------------------
               write      read    awrite     aread      wait
               -----      ----    ------     -----      ----
     calls:     1727        13         0     22438     22438
   data(b): 9.05e+08  6.82e+06  0.00e+00  1.18e+10
   time(s): 0.00e+00  0.00e+00  0.00e+00  0.00e+00  0.00e+00
rate(mb/s): 0.00e+00  0.00e+00
------------------------------------------------------------


 center of mass
 --------------
 x =   0.00000648 y =  -0.00000000 z =   0.00000310

 moments of inertia (a.u.)
 ------------------
           2.832521394825          -0.000012864290          -0.000000000000
          -0.000012864290           2.832241174170           0.000000000000
          -0.000000000000           0.000000000000           2.832431450044

     Multipole analysis of the density
     ---------------------------------

     L   x y z        total         alpha         beta         nuclear
     -   - - -        -----         -----         ----         -------
     0   0 0 0      1.000000     -5.000000     -5.000000     11.000000

     1   1 0 0     -0.000047     -0.000024     -0.000024      0.000000
     1   0 1 0     -0.000000     -0.000000     -0.000000     -0.000000
     1   0 0 1     -0.000022     -0.000011     -0.000011      0.000000

     2   2 0 0     -3.114402     -2.259742     -2.259742      1.405081
     2   1 1 0      0.000007     -0.000003     -0.000003      0.000013
     2   1 0 1     -0.000003     -0.000001     -0.000001     -0.000000
     2   0 2 0     -3.114243     -2.259801     -2.259801      1.405359
     2   0 1 1     -0.000004     -0.000002     -0.000002     -0.000000
     2   0 0 2     -3.114357     -2.259763     -2.259763      1.405170


 Parallel integral file used    1727 records with       0 large values


 Task  times  cpu:       97.5s     wall:       97.5s
 Summary of allocated global arrays
-----------------------------------
  No active global arrays



                         GA Statistics for process    0
                         ------------------------------

       create   destroy   get      put      acc     scatter   gather  read&inc
calls:  204      204     3.91e+04 6667     2.02e+04    0        0      461     
number of processes/call 0.00e+00 0.00e+00 0.00e+00 0.00e+00 0.00e+00
bytes total:             3.35e+08 4.19e+07 1.83e+08 0.00e+00 0.00e+00 3.69e+03
bytes remote:            0.00e+00 0.00e+00 0.00e+00 0.00e+00 0.00e+00 0.00e+00
Max memory consumed for GA by this process: 7495800 bytes
MA_summarize_allocated_blocks: starting scan ...
MA_summarize_allocated_blocks: scan completed: 0 heap blocks, 0 stack blocks
MA usage statistics:

	allocation statistics:
					      heap	     stack
					      ----	     -----
	current number of blocks	         0	         0
	maximum number of blocks	        20	        53
	current total bytes		         0	         0
	maximum total bytes		   3667984	  29249000
	maximum total K-bytes		      3668	     29249
	maximum total M-bytes		         4	        30


                                NWChem Input Module
                                -------------------





                                     CITATION
                                     --------
                Please cite the following reference when publishing
                           results obtained with NWChem:

                 M. Valiev, E.J. Bylaska, N. Govind, K. Kowalski,
              T.P. Straatsma, H.J.J. van Dam, D. Wang, J. Nieplocha,
                        E. Apra, T.L. Windus, W.A. de Jong
                 "NWChem: a comprehensive and scalable open-source
                  solution for large scale molecular simulations"
                      Comput. Phys. Commun. 181, 1477 (2010)
                           doi:10.1016/j.cpc.2010.04.018

                                      AUTHORS
                                      -------
     E. Apra, E. J. Bylaska, N. Govind, K. Kowalski, M. Valiev, W. A. de Jong,
      T. P. Straatsma, H. J. J. van Dam, D. Wang, T. L. Windus, N. P. Bauman,
       A. Panyala, J. Hammond, J. Autschbach, K. Bhaskaran-Nair, J. Brabec,
    K. Lopata, S. A. Fischer, S. Krishnamoorthy, M. Jacquelin, W. Ma, M. Klemm,
       O. Villa, Y. Chen, V. Anisimov, F. Aquino, S. Hirata, M. T. Hackler,
           Eric Hermes, L. Jensen, J. E. Moore, J. C. Becca, V. Konjkov,
            D. Mejia-Rodriguez, T. Risthaus, M. Malagoli, A. Marenich,
   A. Otero-de-la-Roza, J. Mullin, P. Nichols, R. Peverati, J. Pittner, Y. Zhao,
        P.-D. Fan, A. Fonari, M. J. Williamson, R. J. Harrison, J. R. Rehr,
      M. Dupuis, D. Silverstein, D. M. A. Smith, J. Nieplocha, V. Tipparaju,
      M. Krishnan, B. E. Van Kuiken, A. Vazquez-Mayagoitia, M. Swart, Q. Wu,
   T. Van Voorhis, A. A. Auer, M. Nooijen, L. D. Crosby, E. Brown, G. Cisneros,
     G. I. Fann, H. Fruchtl, J. Garza, K. Hirao, R. A. Kendall, J. A. Nichols,
       K. Tsemekhman, K. Wolinski, J. Anchell, D. E. Bernholdt, P. Borowski,
       T. Clark, D. Clerc, H. Dachsel, M. J. O. Deegan, K. Dyall, D. Elwood,
      E. Glendening, M. Gutowski, A. C. Hess, J. Jaffe, B. G. Johnson, J. Ju,
        R. Kobayashi, R. Kutteh, Z. Lin, R. Littlefield, X. Long, B. Meng,
      T. Nakajima, S. Niu, L. Pollack, M. Rosing, K. Glaesemann, G. Sandrone,
      M. Stave, H. Taylor, G. Thomas, J. H. van Lenthe, A. T. Wong, Z. Zhang.

 Total times  cpu:       97.6s     wall:       97.6s
