 argument  1 = nh4_cc-pvqz.inp
                                         
                                         


             Northwest Computational Chemistry Package (NWChem) 7.0.0
             --------------------------------------------------------


                    Environmental Molecular Sciences Laboratory
                       Pacific Northwest National Laboratory
                                Richland, WA 99352

                              Copyright (c) 1994-2019
                       Pacific Northwest National Laboratory
                            Battelle Memorial Institute

             NWChem is an open-source computational chemistry package
                        distributed under the terms of the
                      Educational Community License (ECL) 2.0
             A copy of the license is included with this distribution
                              in the LICENSE.TXT file

                                  ACKNOWLEDGMENT
                                  --------------

            This software and its documentation were developed at the
            EMSL at Pacific Northwest National Laboratory, a multiprogram
            national laboratory, operated for the U.S. Department of Energy
            by Battelle under Contract Number DE-AC05-76RL01830. Support
            for this work was provided by the Department of Energy Office
            of Biological and Environmental Research, Office of Basic
            Energy Sciences, and the Office of Advanced Scientific Computing.


           Job information
           ---------------

    hostname        = Amanda-Dewyers-MacBook-Air.local
    program         = nwchem
    date            = Fri Sep 11 17:29:26 2020

    compiled        = Fri_Jul_03_06:05:09_2020
    source          = /private/tmp/nwchem-20200703-71421-tc8c0i/nwchem-7.0.0
    nwchem branch   = 7.0.0
    nwchem revision = 2c9a1c7c
    ga revision     = 5.7.1
    use scalapack   = T
    input           = nh4_cc-pvqz.inp
    prefix          = nh4_cc-pvqz.
    data base       = ./nh4_cc-pvqz.db
    status          = startup
    nproc           =        1
    time left       =     -1s



           Memory information
           ------------------

    heap     =   13107196 doubles =    100.0 Mbytes
    stack    =   13107201 doubles =    100.0 Mbytes
    global   =   26214400 doubles =    200.0 Mbytes (distinct from heap & stack)
    total    =   52428797 doubles =    400.0 Mbytes
    verify   = yes
    hardfail = no 


           Directory information
           ---------------------

  0 permanent = .
  0 scratch   = .




                                NWChem Input Module
                                -------------------


                                     test case
                                     ---------
 C1  symmetry detected

          ------
          auto-z
          ------
  no constraints, skipping    0.0000000000000000     
  no constraints, skipping    0.0000000000000000     


                             Geometry "geometry" -> ""
                             -------------------------

 Output coordinates in a.u. (scale by  1.000000000 to convert to a.u.)

  No.       Tag          Charge          X              Y              Z
 ---- ---------------- ---------- -------------- -------------- --------------
    1 N                    7.0000     0.00001682    -0.00000000     0.00000806
    2 H                    1.0000    -0.99011928    -0.20294100     0.17987908
    3 H                    1.0000     0.56649954    -0.82246279     0.23776620
    4 H                    1.0000     0.29585203     0.79730895     0.57506355
    5 H                    1.0000     0.12764994     0.22809484    -0.99276521

      Atomic Mass 
      ----------- 

      N                 14.003070
      H                  1.007825


 Effective nuclear repulsion energy (a.u.)      30.8536052699

            Nuclear Dipole moment (a.u.) 
            ----------------------------
        X                 Y               Z
 ---------------- ---------------- ----------------
     0.0000000000    -0.0000000000     0.0000000000



                                Z-matrix (autoz)
                                -------- 

 Units are Angstrom for bonds and degrees for angles

      Type          Name      I     J     K     L     M      Value
      ----------- --------  ----- ----- ----- ----- ----- ----------
    1 Stretch                  1     2                       0.54325
    2 Stretch                  1     3                       0.54325
    3 Stretch                  1     4                       0.54325
    4 Stretch                  1     5                       0.54326
    5 Stretch                  2     3                       0.88710
    6 Stretch                  2     4                       0.88712
    7 Stretch                  2     5                       0.88711
    8 Stretch                  3     4                       0.88717
    9 Stretch                  3     5                       0.88714
   10 Stretch                  4     5                       0.88712
   11 Bend                     1     2     3                35.26638
   12 Bend                     1     2     4                35.26482
   13 Bend                     1     2     5                35.26646
   14 Bend                     1     3     2                35.26699
   15 Bend                     1     3     4                35.26038
   16 Bend                     1     3     5                35.26365
   17 Bend                     1     4     2                35.26481
   18 Bend                     1     4     3                35.25976
   19 Bend                     1     4     5                35.26518
   20 Bend                     1     5     2                35.26630
   21 Bend                     1     5     3                35.26289
   22 Bend                     1     5     4                35.26504
   23 Bend                     2     1     3               109.46663
   24 Bend                     2     1     4               109.47036
   25 Bend                     2     1     5               109.46724
   26 Bend                     2     3     4                59.99933
   27 Bend                     2     3     5                59.99942
   28 Bend                     2     4     3                59.99628
   29 Bend                     2     4     5                59.99890
   30 Bend                     2     5     3                59.99811
   31 Bend                     2     5     4                60.00063
   32 Bend                     3     1     4               109.47985
   33 Bend                     3     1     5               109.47345
   34 Bend                     3     2     4                60.00440
   35 Bend                     3     2     5                60.00248
   36 Bend                     3     4     5                59.99925
   37 Bend                     3     5     4                60.00299
   38 Bend                     4     1     5               109.46979
   39 Bend                     4     2     5                60.00047
   40 Bend                     4     3     5                59.99776
   41 Torsion                  1     2     3     4          35.26008
   42 Torsion                  1     2     3     5         -35.26647
   43 Torsion                  1     2     4     3         -35.26164
   44 Torsion                  1     2     4     5          35.26819
   45 Torsion                  1     2     5     3          35.26640
   46 Torsion                  1     2     5     4         -35.26656
   47 Torsion                  1     3     2     4         -35.26008
   48 Torsion                  1     3     2     5          35.26647
   49 Torsion                  1     3     4     2          35.26668
   50 Torsion                  1     3     4     5         -35.26257
   51 Torsion                  1     3     5     2         -35.26981
   52 Torsion                  1     3     5     4          35.25930
   53 Torsion                  1     4     2     3          35.26164
   54 Torsion                  1     4     2     5         -35.26819
   55 Torsion                  1     4     3     2         -35.26668
   56 Torsion                  1     4     3     5          35.26257
   57 Torsion                  1     4     5     2          35.26782
   58 Torsion                  1     4     5     3         -35.25716
   59 Torsion                  1     5     2     3         -35.26640
   60 Torsion                  1     5     2     4          35.26656
   61 Torsion                  1     5     3     2          35.26981
   62 Torsion                  1     5     3     4         -35.25930
   63 Torsion                  1     5     4     2         -35.26782
   64 Torsion                  1     5     4     3          35.25716
   65 Torsion                  2     1     3     4        -120.00142
   66 Torsion                  2     1     3     5         119.99368
   67 Torsion                  2     1     4     3         119.99913
   68 Torsion                  2     1     4     5        -119.99373
   69 Torsion                  2     1     5     3        -119.99330
   70 Torsion                  2     1     5     4         119.99564
   71 Torsion                  2     3     1     4         120.00142
   72 Torsion                  2     3     1     5        -119.99368
   73 Torsion                  2     3     4     5         -70.52925
   74 Torsion                  2     3     5     4          70.52911
   75 Torsion                  2     4     1     3        -119.99913
   76 Torsion                  2     4     1     5         119.99373
   77 Torsion                  2     4     3     5          70.52925
   78 Torsion                  2     4     5     3         -70.52498
   79 Torsion                  2     5     1     3         119.99330
   80 Torsion                  2     5     1     4        -119.99564
   81 Torsion                  2     5     3     4         -70.52911
   82 Torsion                  2     5     4     3          70.52498
   83 Torsion                  3     1     2     4         120.00723
   84 Torsion                  3     1     2     5        -119.99748
   85 Torsion                  3     1     4     5         120.00714
   86 Torsion                  3     1     5     4        -120.01106
   87 Torsion                  3     2     1     4        -120.00723
   88 Torsion                  3     2     1     5         119.99748
   89 Torsion                  3     2     4     5          70.52983
   90 Torsion                  3     2     5     4         -70.53296
   91 Torsion                  3     4     1     5        -120.00714
   92 Torsion                  3     4     2     5         -70.52983
   93 Torsion                  3     5     1     4         120.01106
   94 Torsion                  3     5     2     4          70.53296
   95 Torsion                  4     1     2     5         119.99528
   96 Torsion                  4     1     3     5        -120.00490
   97 Torsion                  4     2     1     5        -119.99528
   98 Torsion                  4     2     3     5         -70.52655
   99 Torsion                  4     3     1     5         120.00490
  100 Torsion                  4     3     2     5          70.52655


            XYZ format geometry
            -------------------
     5
 geometry
 N                     0.00000890    -0.00000000     0.00000426
 H                    -0.52394860    -0.10739176     0.09518792
 H                     0.29977867    -0.43522860     0.12582046
 H                     0.15655816     0.42191776     0.30431055
 H                     0.06754944     0.12070260    -0.52534876

 ==============================================================================
                                internuclear distances
 ------------------------------------------------------------------------------
       center one      |      center two      | atomic units |       a.u.
 ------------------------------------------------------------------------------
    2 H                |   1 N                |     1.02660  |     1.02660
    3 H                |   1 N                |     1.02658  |     1.02658
    4 H                |   1 N                |     1.02660  |     1.02660
    5 H                |   1 N                |     1.02660  |     1.02660
 ------------------------------------------------------------------------------
                         number of included internuclear distances:          4
 ==============================================================================



 ==============================================================================
                                 internuclear angles
 ------------------------------------------------------------------------------
        center 1       |       center 2       |       center 3       |  degrees
 ------------------------------------------------------------------------------
    2 H                |   1 N                |   3 H                |   109.47
    2 H                |   1 N                |   4 H                |   109.47
    2 H                |   1 N                |   5 H                |   109.47
    3 H                |   1 N                |   4 H                |   109.48
    3 H                |   1 N                |   5 H                |   109.47
    4 H                |   1 N                |   5 H                |   109.47
 ------------------------------------------------------------------------------
                            number of included internuclear angles:          6
 ==============================================================================



  library name resolved from: .nwchemrc
  library file name is: </usr/local/Cellar/nwchem/7.0.0_2/share/nwchem/libraries/>
  


 Summary of "ao basis" -> "" (cartesian)
 ------------------------------------------------------------------------------
       Tag                 Description            Shells   Functions and Types
 ---------------- ------------------------------  ------  ---------------------
 *                          cc-pvqz                   on all atoms 



                                 NWChem DFT Module
                                 -----------------


                                     test case


                      Basis "ao basis" -> "ao basis" (cartesian)
                      -----
  N (Nitrogen)
  ------------
            Exponent  Coefficients 
       -------------- ---------------------------------------------------------
  1 S  4.58400000E+04  0.000092
  1 S  6.86800000E+03  0.000717
  1 S  1.56300000E+03  0.003749
  1 S  4.42400000E+02  0.015532
  1 S  1.44300000E+02  0.053146
  1 S  5.21800000E+01  0.146787
  1 S  2.03400000E+01  0.304663
  1 S  8.38100000E+00  0.397684
  1 S  3.52900000E+00  0.217641

  2 S  4.58400000E+04 -0.000020
  2 S  6.86800000E+03 -0.000159
  2 S  1.56300000E+03 -0.000824
  2 S  4.42400000E+02 -0.003478
  2 S  1.44300000E+02 -0.011966
  2 S  5.21800000E+01 -0.035388
  2 S  2.03400000E+01 -0.080077
  2 S  8.38100000E+00 -0.146722
  2 S  3.52900000E+00 -0.116360

  3 S  1.05400000E+00  1.000000

  4 S  4.11800000E-01  1.000000

  5 S  1.55200000E-01  1.000000

  6 P  4.93300000E+01  0.005533
  6 P  1.13700000E+01  0.037962
  6 P  3.43500000E+00  0.149028

  7 P  1.18200000E+00  1.000000

  8 P  4.17300000E-01  1.000000

  9 P  1.42800000E-01  1.000000

 10 D  2.83700000E+00  1.000000

 11 D  9.68000000E-01  1.000000

 12 D  3.35000000E-01  1.000000

 13 F  2.02700000E+00  1.000000

 14 F  6.85000000E-01  1.000000

 15 G  1.42700000E+00  1.000000

  H (Hydrogen)
  ------------
            Exponent  Coefficients 
       -------------- ---------------------------------------------------------
  1 S  8.26400000E+01  0.002006
  1 S  1.24100000E+01  0.015343
  1 S  2.82400000E+00  0.075579

  2 S  7.97700000E-01  1.000000

  3 S  2.58100000E-01  1.000000

  4 S  8.98900000E-02  1.000000

  5 P  2.29200000E+00  1.000000

  6 P  8.38000000E-01  1.000000

  7 P  2.92000000E-01  1.000000

  8 D  2.06200000E+00  1.000000

  9 D  6.62000000E-01  1.000000

 10 F  1.39700000E+00  1.000000



 Summary of "ao basis" -> "ao basis" (cartesian)
 ------------------------------------------------------------------------------
       Tag                 Description            Shells   Functions and Types
 ---------------- ------------------------------  ------  ---------------------
 N                          cc-pvqz                 15       70   5s4p3d2f1g
 H                          cc-pvqz                 10       35   4s3p2d1f




 Summary of "ao basis" -> "ao basis" (cartesian)
 ------------------------------------------------------------------------------
       Tag                 Description            Shells   Functions and Types
 ---------------- ------------------------------  ------  ---------------------
 N                          cc-pvqz                 15       70   5s4p3d2f1g
 H                          cc-pvqz                 10       35   4s3p2d1f


  Caching 1-el integrals 

            General Information
            -------------------
          SCF calculation type: DFT
          Wavefunction type:  closed shell.
          No. of atoms     :     5
          No. of electrons :    10
           Alpha electrons :     5
            Beta electrons :     5
          Charge           :     1
          Spin multiplicity:     1
          Use of symmetry is: off; symmetry adaption is: off
          Maximum number of iterations:  30
          AO basis - number of functions:   210
                     number of shells:    55
          Convergence on energy requested:  1.00D-06
          Convergence on density requested:  1.00D-05
          Convergence on gradient requested:  5.00D-04

              XC Information
              --------------
                         B3LYP Method XC Potential
                     Hartree-Fock (Exact) Exchange  0.200          
                        Slater Exchange Functional  0.800 local    
                    Becke 1988 Exchange Functional  0.720 non-local
              Lee-Yang-Parr Correlation Functional  0.810          
                  VWN I RPA Correlation Functional  0.190 local    

             Grid Information
             ----------------
          Grid used for XC integration:  medium    
          Radial quadrature: Mura-Knowles        
          Angular quadrature: Lebedev. 
          Tag              B.-S. Rad. Rad. Pts. Rad. Cut. Ang. Pts.
          ---              ---------- --------- --------- ---------
          N                   0.65       49           6.0       434
          H                   0.35       45           6.0       434
          Grid pruning is: on 
          Number of quadrature shells:   229
          Spatial weights used:  Erf1

          Convergence Information
          -----------------------
          Convergence aids based upon iterative change in 
          total energy or number of iterations. 
          Levelshifting, if invoked, occurs when the 
          HOMO/LUMO gap drops below (HL_TOL):  1.00D-02
          DIIS, if invoked, will attempt to extrapolate 
          using up to (NFOCK): 10 stored Fock matrices.

                    Damping( 0%)  Levelshifting(0.5)       DIIS
                  --------------- ------------------- ---------------
          dE  on:    start            ASAP                start   
          dE off:    2 iters         30 iters            30 iters 


      Screening Tolerance Information
      -------------------------------
          Density screening/tol_rho:  1.00D-10
          AO Gaussian exp screening on grid/accAOfunc:  14
          CD Gaussian exp screening on grid/accCDfunc:  20
          XC Gaussian exp screening on grid/accXCfunc:  20
          Schwarz screening/accCoul:  1.00D-08


 WARNING : Found     2 linear dependencies 
 S eigenvalue threshold:     1.00000E-05
 Smallest S eigenvalue :     1.63289E-06
 Largest  S eigenvalue :     3.25864E-06


 !! The overlap matrix has   2 vectors deemed linearly dependent with
    eigenvalues:
 1.63D-06 3.26D-06


      Superposition of Atomic Density Guess
      -------------------------------------

 Sum of atomic energies:         -56.31235575

 Renormalizing density from      11.00 to     10

      Non-variational initial energy
      ------------------------------

 Total energy =     -52.444943
 1-e energy   =    -113.957739
 2-e energy   =      30.659191
 HOMO         =      -2.012505
 LUMO         =      -0.292883

   Time after variat. SCF:     19.2
   Time prior to 1st pass:     19.2

 Integral file          = ./nh4_cc-pvqz.aoints.0
 Record size in doubles =  65536        No. of integs per rec  =  43688
 Max. records in memory =      0        Max. records in file   = 141665
 No. of bits per label  =      8        No. of bits per value  =     64


 #quartets = 1.187D+06 #integrals = 2.549D+08 #direct =  0.0% #cached =100.0%


 Grid_pts file          = ./nh4_cc-pvqz.gridpts.0
 Record size in doubles =  12289        No. of grid_pts per rec  =   3070
 Max. records in memory =     37        Max. recs in file   =    725954

 Grid integrated density:      10.007118588257
 Requested integration accuracy:   0.10E-05

           Memory utilization after 1st SCF pass: 
           Heap Space remaining (MW):       12.65            12647180
          Stack Space remaining (MW):       13.11            13106036

   convergence    iter        energy       DeltaE   RMS-Dens  Diis-err    time
 ---------------- ----- ----------------- --------- --------- ---------  ------
 d= 0,ls=0.0,diis     1    -54.1528650658 -8.50D+01  6.84D+02  6.80D+01    56.9
 Grid integrated density:       9.999947892179
 Requested integration accuracy:   0.10E-05
 d= 0,ls=0.0,diis     2      9.2500119368  6.34D+01  6.40D+00  8.93D+02    73.8
 Grid integrated density:       9.999946557110
 Requested integration accuracy:   0.10E-05
 d= 0,ls=0.0,diis     3      8.5846030051 -6.65D-01  1.03D-01  8.78D+02    90.4
 Grid integrated density:       9.999946575470
 Requested integration accuracy:   0.10E-05
 d= 0,ls=0.0,diis     4      8.5956845094  1.11D-02  6.78D-01  8.79D+02   106.8
 Grid integrated density:       9.999972566685
 Requested integration accuracy:   0.10E-05
 d= 0,ls=0.0,diis     5      8.5546278675 -4.11D-02  1.97D-01  8.78D+02   132.6
 Grid integrated density:       9.999972570790
 Requested integration accuracy:   0.10E-05
  Resetting Diis
 d= 0,ls=0.0,diis     6      8.5245015583 -3.01D-02  2.93D-02  8.77D+02   151.9
 Grid integrated density:       9.999972571401
 Requested integration accuracy:   0.10E-05
 d= 0,ls=0.0,diis     7      8.5233178723 -1.18D-03  6.84D+02  8.77D+02   168.5
 Grid integrated density:       9.999978677440
 Requested integration accuracy:   0.10E-05
 d= 0,ls=0.0,diis     8    -52.4295979237 -6.10D+01  1.56D-02  3.74D+01   185.9
 Grid integrated density:       9.999988871603
 Requested integration accuracy:   0.10E-05
 d= 0,ls=0.0,diis     9    -53.6212359765 -1.19D+00  5.51D-03  1.24D+01   202.8
 Grid integrated density:       9.999985016935
 Requested integration accuracy:   0.10E-05
 d= 0,ls=0.0,diis    10    -54.5113423702 -8.90D-01  1.05D-03  1.20D-01   218.9
 Grid integrated density:       9.999985386151
 Requested integration accuracy:   0.10E-05
 d= 0,ls=0.0,diis    11    -54.5204220942 -9.08D-03  6.87D-05  2.91D-04   235.2
 Grid integrated density:       9.999985377014
 Requested integration accuracy:   0.10E-05
 d= 0,ls=0.0,diis    12    -54.5204352612 -1.32D-05  7.88D-06  2.12D-05   251.3
 Grid integrated density:       9.999985377448
 Requested integration accuracy:   0.10E-05
 d= 0,ls=0.0,diis    13    -54.5204364849 -1.22D-06  5.72D-07  8.62D-08   267.5
 Grid integrated density:       9.999985377517
 Requested integration accuracy:   0.10E-05
 d= 0,ls=0.0,diis    14    -54.5204364897 -4.82D-09  3.14D-08  5.67D-10   285.3


         Total DFT energy =      -54.520436489744
      One electron energy =     -125.815644461527
           Coulomb energy =       49.845429757060
    Exchange-Corr. energy =       -9.403827055152
 Nuclear repulsion energy =       30.853605269876

 Numeric. integr. density =        9.999985377517

     Total iterative time =    266.1s



                       DFT Final Molecular Orbital Analysis
                       ------------------------------------

 Vector    1  Occ=2.000000D+00  E=-1.469791D+01
              MO Center=  8.8D-06, -2.5D-08,  4.2D-06, r^2= 2.0D-02
   Bfn.  Coefficient  Atom+Function         Bfn.  Coefficient  Atom+Function  
  ----- ------------  ---------------      ----- ------------  ---------------
     1      1.047551  1 N  s                  2      0.086235  1 N  s          
     4      0.082873  1 N  s                 24     -0.060317  1 N  dxx        
    27     -0.060317  1 N  dyy               29     -0.060320  1 N  dzz        
     3     -0.059108  1 N  s                 59      0.028370  1 N  gxxyy      
    68      0.028178  1 N  gyyzz             61      0.025105  1 N  gxxzz      

 Vector    2  Occ=2.000000D+00  E=-1.628258D+00
              MO Center= -3.9D-05, -5.4D-06, -1.7D-05, r^2= 4.5D-01
   Bfn.  Coefficient  Atom+Function         Bfn.  Coefficient  Atom+Function  
  ----- ------------  ---------------      ----- ------------  ---------------
     2      0.327649  1 N  s                  4      0.250826  1 N  s          
    72      0.152118  2 H  s                107      0.152174  3 H  s          
   142      0.152177  4 H  s                177      0.152125  5 H  s          
    73      0.110041  2 H  s                178      0.110078  5 H  s          
   108      0.109257  3 H  s                143      0.109169  4 H  s          

 Vector    3  Occ=2.000000D+00  E=-1.140818D+00
              MO Center=  6.1D-02, -1.2D-02,  4.9D-02, r^2= 4.7D-01
   Bfn.  Coefficient  Atom+Function         Bfn.  Coefficient  Atom+Function  
  ----- ------------  ---------------      ----- ------------  ---------------
    13      0.486050  1 N  py                10      0.216530  1 N  py         
     7      0.193973  1 N  py               113     -0.114994  3 H  px         
   150      0.111973  4 H  pz                25     -0.107998  1 N  dxy        
   107     -0.105006  3 H  s                106     -0.098641  3 H  s          
   142      0.095669  4 H  s                 28     -0.092132  1 N  dyz        

 Vector    4  Occ=2.000000D+00  E=-1.140769D+00
              MO Center=  3.0D-02,  5.5D-02, -7.5D-02, r^2= 4.6D-01
   Bfn.  Coefficient  Atom+Function         Bfn.  Coefficient  Atom+Function  
  ----- ------------  ---------------      ----- ------------  ---------------
    14      0.483833  1 N  pz                11      0.215592  1 N  pz         
     8      0.193108  1 N  pz               185      0.139917  5 H  pz         
   177     -0.120548  5 H  s                149      0.119700  4 H  py         
   176     -0.113375  5 H  s                 28     -0.092612  1 N  dyz        
    80     -0.089845  2 H  pz               142      0.080440  4 H  s          

 Vector    5  Occ=2.000000D+00  E=-1.140753D+00
              MO Center= -9.1D-02, -4.3D-02,  2.6D-02, r^2= 4.6D-01
   Bfn.  Coefficient  Atom+Function         Bfn.  Coefficient  Atom+Function  
  ----- ------------  ---------------      ----- ------------  ---------------
    12      0.484496  1 N  px                 9      0.215882  1 N  px         
     6      0.193371  1 N  px                78      0.148904  2 H  px         
    72     -0.125583  2 H  s                 71     -0.118103  2 H  s          
   114     -0.108353  3 H  py               183     -0.086357  5 H  px         
    75     -0.081824  2 H  px                24      0.078877  1 N  dxx        

 Vector    6  Occ=0.000000D+00  E=-2.109367D-01
              MO Center= -1.9D-04,  1.3D-05, -1.3D-04, r^2= 4.4D+00
   Bfn.  Coefficient  Atom+Function         Bfn.  Coefficient  Atom+Function  
  ----- ------------  ---------------      ----- ------------  ---------------
     5      3.278967  1 N  s                 74     -0.687441  2 H  s          
   109     -0.687674  3 H  s                144     -0.687924  4 H  s          
   179     -0.687383  5 H  s                  3      0.564803  1 N  s          
     4     -0.554994  1 N  s                 30     -0.541760  1 N  dxx        
    33     -0.540795  1 N  dyy               35     -0.541769  1 N  dzz        

 Vector    7  Occ=0.000000D+00  E=-1.227208D-01
              MO Center=  2.6D-01, -5.7D-02,  2.0D-01, r^2= 5.0D+00
   Bfn.  Coefficient  Atom+Function         Bfn.  Coefficient  Atom+Function  
  ----- ------------  ---------------      ----- ------------  ---------------
   109      3.219743  3 H  s                144     -2.882395  4 H  s          
   179     -1.163817  5 H  s                108     -0.883738  3 H  s          
    74      0.826440  2 H  s                143      0.791474  4 H  s          
    16      0.703332  1 N  py                10      0.698577  1 N  py         
    52      0.595935  1 N  fyyy              54      0.589693  1 N  fyzz       

 Vector    8  Occ=0.000000D+00  E=-1.227178D-01
              MO Center= -8.6D-02,  1.3D-01, -3.3D-01, r^2= 5.0D+00
   Bfn.  Coefficient  Atom+Function         Bfn.  Coefficient  Atom+Function  
  ----- ------------  ---------------      ----- ------------  ---------------
   179      3.554550  5 H  s                 74     -2.274940  2 H  s          
   144     -1.661234  4 H  s                178     -0.980151  5 H  s          
    17      0.627876  1 N  pz                11      0.623711  1 N  pz         
    73      0.620647  2 H  s                185      0.583268  5 H  pz         
    48      0.565109  1 N  fxxz              53      0.547771  1 N  fyyz       

 Vector    9  Occ=0.000000D+00  E=-1.227147D-01
              MO Center= -1.7D-01, -7.2D-02,  1.3D-01, r^2= 5.0D+00
   Bfn.  Coefficient  Atom+Function         Bfn.  Coefficient  Atom+Function  
  ----- ------------  ---------------      ----- ------------  ---------------
    74      3.110857  2 H  s                109     -2.241169  3 H  s          
   144     -2.113533  4 H  s                179      1.243607  5 H  s          
    73     -0.866856  2 H  s                 15      0.629507  1 N  px         
     9      0.625538  1 N  px               108      0.603668  3 H  s          
    51      0.587426  1 N  fxzz             143      0.568540  4 H  s          

 Vector   10  Occ=0.000000D+00  E= 1.384895D-02
              MO Center=  1.0D-01,  3.1D-02,  3.5D-02, r^2= 4.0D+00
   Bfn.  Coefficient  Atom+Function         Bfn.  Coefficient  Atom+Function  
  ----- ------------  ---------------      ----- ------------  ---------------
    73     16.241581  2 H  s                 12     13.384551  1 N  px         
   178    -11.927195  5 H  s                 14     -9.563625  1 N  pz         
   108     -8.038702  3 H  s                 15      5.159305  1 N  px         
    74      5.017504  2 H  s                143      3.790052  4 H  s          
    17     -3.686339  1 N  pz               179     -3.693378  5 H  s          

 Vector   11  Occ=0.000000D+00  E= 1.385338D-02
              MO Center= -2.3D-02, -4.6D-02,  2.4D-02, r^2= 4.0D+00
   Bfn.  Coefficient  Atom+Function         Bfn.  Coefficient  Atom+Function  
  ----- ------------  ---------------      ----- ------------  ---------------
    14     13.407058  1 N  pz               178     13.349188  5 H  s          
   143    -12.633422  4 H  s                 12      9.749851  1 N  px         
   108     -8.717692  3 H  s                 73      8.436069  2 H  s          
    17      5.168476  1 N  pz               179      4.094912  5 H  s          
   144     -3.940493  4 H  s                 15      3.758736  1 N  px         

 Vector   12  Occ=0.000000D+00  E= 1.386048D-02
              MO Center= -7.8D-02,  1.4D-02, -6.0D-02, r^2= 4.0D+00
   Bfn.  Coefficient  Atom+Function         Bfn.  Coefficient  Atom+Function  
  ----- ------------  ---------------      ----- ------------  ---------------
    13     16.421110  1 N  py               108     14.866597  3 H  s          
   143    -13.678847  4 H  s                178     -6.764868  5 H  s          
    16      6.329811  1 N  py                73      5.581804  2 H  s          
   109      4.596992  3 H  s                144     -4.230460  4 H  s          
    47     -4.067725  1 N  fxxy              54     -4.057906  1 N  fyzz       

 Vector   13  Occ=0.000000D+00  E= 1.087547D-01
              MO Center= -2.6D-05, -1.9D-05,  6.7D-06, r^2= 2.6D+00
   Bfn.  Coefficient  Atom+Function         Bfn.  Coefficient  Atom+Function  
  ----- ------------  ---------------      ----- ------------  ---------------
    31      3.314480  1 N  dxy               34     -3.319518  1 N  dyz        
    82      2.319738  2 H  py               187     -2.288934  5 H  py         
    33      1.958507  1 N  dyy              153      1.966976  4 H  pz         
   116      1.943972  3 H  px                25      1.460925  1 N  dxy        
    28     -1.462797  1 N  dyz               79      1.281970  2 H  py         

 Vector   14  Occ=0.000000D+00  E= 1.087626D-01
              MO Center= -7.5D-05,  1.1D-05, -5.2D-05, r^2= 2.6D+00
   Bfn.  Coefficient  Atom+Function         Bfn.  Coefficient  Atom+Function  
  ----- ------------  ---------------      ----- ------------  ---------------
    32      5.196806  1 N  dxz               83      2.345916  2 H  pz         
   186      2.344988  5 H  px                26      2.290445  1 N  dxz        
   118     -2.140864  3 H  pz               151     -2.136980  4 H  px         
    34     -1.467201  1 N  dyz               80      1.296194  2 H  pz         
   183      1.295657  5 H  px               115     -1.182820  3 H  pz         

 Vector   15  Occ=0.000000D+00  E= 1.532714D-01
              MO Center= -7.8D-04,  9.0D-06, -6.8D-04, r^2= 6.2D+00
   Bfn.  Coefficient  Atom+Function         Bfn.  Coefficient  Atom+Function  
  ----- ------------  ---------------      ----- ------------  ---------------
     5     17.324240  1 N  s                  4     -4.000225  1 N  s          
    30     -2.858884  1 N  dxx               33     -2.856425  1 N  dyy        
    35     -2.858962  1 N  dzz                3      2.572995  1 N  s          
    74     -1.682538  2 H  s                109     -1.680641  3 H  s          
   144     -1.680962  4 H  s                179     -1.682290  5 H  s          

 Vector   16  Occ=0.000000D+00  E= 2.433968D-01
              MO Center=  5.1D-01,  1.1D-01,  5.0D-01, r^2= 4.5D+00
   Bfn.  Coefficient  Atom+Function         Bfn.  Coefficient  Atom+Function  
  ----- ------------  ---------------      ----- ------------  ---------------
   144      6.422006  4 H  s                109     -5.687467  3 H  s          
    16     -4.274543  1 N  py                13     -2.404049  1 N  py         
    17     -1.724781  1 N  pz               142      1.657679  4 H  s          
   107     -1.474205  3 H  s                187      1.369781  5 H  py         
   179     -1.340406  5 H  s                 82      1.313132  2 H  py         

 Vector   17  Occ=0.000000D+00  E= 2.434015D-01
              MO Center=  1.0D-01,  4.3D-02, -8.4D-01, r^2= 4.3D+00
   Bfn.  Coefficient  Atom+Function         Bfn.  Coefficient  Atom+Function  
  ----- ------------  ---------------      ----- ------------  ---------------
   179      7.407385  5 H  s                 17      4.269267  1 N  pz         
   109     -3.400697  3 H  s                 74     -2.806189  2 H  s          
    14      2.400858  1 N  pz               177      1.929682  5 H  s          
    16     -1.869595  1 N  py               185      1.770651  5 H  pz         
   144     -1.201350  4 H  s                 11      1.166569  1 N  pz         

 Vector   18  Occ=0.000000D+00  E= 2.434074D-01
              MO Center= -6.2D-01, -1.6D-01,  3.3D-01, r^2= 4.5D+00
   Bfn.  Coefficient  Atom+Function         Bfn.  Coefficient  Atom+Function  
  ----- ------------  ---------------      ----- ------------  ---------------
    74      6.969215  2 H  s                 15      4.561757  1 N  px         
   144     -3.759384  4 H  s                109     -3.592859  3 H  s          
    12      2.565075  1 N  px                72      1.824285  2 H  s          
    78      1.544484  2 H  px               186     -1.375500  5 H  px         
    51      1.287475  1 N  fxzz               9      1.246523  1 N  px         

 Vector   19  Occ=0.000000D+00  E= 4.864696D-01
              MO Center= -1.1D-02, -8.9D-04, -1.1D-02, r^2= 3.2D+00
   Bfn.  Coefficient  Atom+Function         Bfn.  Coefficient  Atom+Function  
  ----- ------------  ---------------      ----- ------------  ---------------
     5     13.140300  1 N  s                  4     -5.300326  1 N  s          
   178     -3.009811  5 H  s                 73     -2.962592  2 H  s          
    72     -2.755244  2 H  s                177     -2.761150  5 H  s          
   107     -2.506048  3 H  s                142     -2.475907  4 H  s          
    81      2.322182  2 H  px               188      2.318428  5 H  pz         

 Vector   20  Occ=0.000000D+00  E= 5.083361D-01
              MO Center=  3.7D-01,  5.2D-02,  2.3D-01, r^2= 3.5D+00
   Bfn.  Coefficient  Atom+Function         Bfn.  Coefficient  Atom+Function  
  ----- ------------  ---------------      ----- ------------  ---------------
    73     33.592745  2 H  s                 12     29.925004  1 N  px         
   178    -29.208601  5 H  s                 14    -26.518319  1 N  pz         
   108    -14.162599  3 H  s                143      9.812265  4 H  s          
    46     -7.164308  1 N  fxxx              15      6.955805  1 N  px         
    49     -6.588627  1 N  fxyy              51     -6.513297  1 N  fxzz       

 Vector   21  Occ=0.000000D+00  E= 5.083554D-01
              MO Center= -3.4D-01,  8.6D-02, -2.5D-01, r^2= 3.5D+00
   Bfn.  Coefficient  Atom+Function         Bfn.  Coefficient  Atom+Function  
  ----- ------------  ---------------      ----- ------------  ---------------
    13     39.880569  1 N  py               108     33.328660  3 H  s          
   143    -29.325459  4 H  s                178    -14.245710  5 H  s          
    73     10.230912  2 H  s                 16      9.270528  1 N  py         
    47     -9.316386  1 N  fxxy              54     -9.285601  1 N  fyzz       
    52     -9.167567  1 N  fyyy              10     -6.492077  1 N  py         

 Vector   22  Occ=0.000000D+00  E= 5.083802D-01
              MO Center= -1.3D-02, -1.4D-01,  2.8D-02, r^2= 3.7D+00
   Bfn.  Coefficient  Atom+Function         Bfn.  Coefficient  Atom+Function  
  ----- ------------  ---------------      ----- ------------  ---------------
    14     29.777276  1 N  pz               143    -27.233505  4 H  s          
    12     26.794242  1 N  px               178     25.691743  5 H  s          
    73     21.972286  2 H  s                108    -19.724623  3 H  s          
    53     -7.268981  1 N  fyyz              55     -7.046582  1 N  fzzz       
    17      6.923778  1 N  pz                49     -6.568755  1 N  fxyy       

 Vector   23  Occ=0.000000D+00  E= 5.308037D-01
              MO Center=  1.4D-01,  7.4D-03,  4.0D-02, r^2= 2.9D+00
   Bfn.  Coefficient  Atom+Function         Bfn.  Coefficient  Atom+Function  
  ----- ------------  ---------------      ----- ------------  ---------------
   118      3.296776  3 H  pz               187     -2.841688  5 H  py         
   152      2.342788  4 H  py               151     -2.252468  4 H  px         
   153     -2.085758  4 H  pz               117      1.802849  3 H  py         
   115      1.437218  3 H  pz                82     -1.302377  2 H  py         
   116      1.233696  3 H  px               184     -1.239480  5 H  py         

 Vector   24  Occ=0.000000D+00  E= 5.308093D-01
              MO Center= -5.9D-02,  8.5D-02,  3.9D-02, r^2= 3.0D+00
   Bfn.  Coefficient  Atom+Function         Bfn.  Coefficient  Atom+Function  
  ----- ------------  ---------------      ----- ------------  ---------------
   151      3.052227  4 H  px                82      2.929703  2 H  py         
   187     -2.600004  5 H  py               153     -2.353345  4 H  pz         
    83      2.229101  2 H  pz               116     -1.666257  3 H  px         
   148      1.330000  4 H  px                79      1.277939  2 H  py         
    47     -1.213421  1 N  fxxy              91      1.203344  2 H  dxy        

 Vector   25  Occ=0.000000D+00  E= 5.308109D-01
              MO Center= -7.6D-02, -9.3D-02, -7.9D-02, r^2= 2.9D+00
   Bfn.  Coefficient  Atom+Function         Bfn.  Coefficient  Atom+Function  
  ----- ------------  ---------------      ----- ------------  ---------------
   186      3.643875  5 H  px                83     -3.129917  2 H  pz         
   116     -2.570216  3 H  px                82      2.190837  2 H  py         
   118      1.794364  3 H  pz               183      1.588430  5 H  px         
   197      1.457366  5 H  dxz               80     -1.365018  2 H  pz         
   117     -1.254721  3 H  py                92     -1.191567  2 H  dxz        

 Vector   26  Occ=0.000000D+00  E= 6.530941D-01
              MO Center= -1.6D-01, -1.6D-02, -5.4D-02, r^2= 2.7D+00
   Bfn.  Coefficient  Atom+Function         Bfn.  Coefficient  Atom+Function  
  ----- ------------  ---------------      ----- ------------  ---------------
    73     22.334710  2 H  s                178    -15.774617  5 H  s          
    12     11.226042  1 N  px                81      9.218664  2 H  px         
    14     -7.121591  1 N  pz               188     -6.621315  5 H  pz         
    49     -4.516295  1 N  fxyy              51     -4.466302  1 N  fxzz       
    30      3.965013  1 N  dxx               46     -3.461610  1 N  fxxx       

 Vector   27  Occ=0.000000D+00  E= 6.531088D-01
              MO Center=  4.6D-02,  6.9D-04, -6.2D-02, r^2= 2.7D+00
   Bfn.  Coefficient  Atom+Function         Bfn.  Coefficient  Atom+Function  
  ----- ------------  ---------------      ----- ------------  ---------------
   178     18.167446  5 H  s                108    -14.538274  3 H  s          
   143    -12.143115  4 H  s                 14     11.193431  1 N  pz         
    73      8.971618  2 H  s                 12      7.663125  1 N  px         
   188      7.293740  5 H  pz               117     -5.417956  3 H  py         
    48     -5.055893  1 N  fxxz             152      4.730295  4 H  py         

 Vector   28  Occ=0.000000D+00  E= 6.531131D-01
              MO Center=  1.2D-01,  1.6D-02,  1.2D-01, r^2= 2.7D+00
   Bfn.  Coefficient  Atom+Function         Bfn.  Coefficient  Atom+Function  
  ----- ------------  ---------------      ----- ------------  ---------------
   143    -20.395993  4 H  s                108     18.748458  3 H  s          
    13     13.160202  1 N  py               152      6.305410  4 H  py         
   117      5.906188  3 H  py                31     -5.265877  1 N  dxy        
    34     -5.223841  1 N  dyz              153      5.144000  4 H  pz         
   116     -4.791026  3 H  px                54     -4.684756  1 N  fyzz       

 Vector   29  Occ=0.000000D+00  E= 8.018347D-01
              MO Center= -2.9D-05, -2.2D-05,  1.0D-05, r^2= 2.4D+00
   Bfn.  Coefficient  Atom+Function         Bfn.  Coefficient  Atom+Function  
  ----- ------------  ---------------      ----- ------------  ---------------
    31      8.467898  1 N  dxy               34     -8.478337  1 N  dyz        
    33      5.017363  1 N  dyy               82      4.269273  2 H  py         
   187     -4.212528  5 H  py               153      3.625320  4 H  pz         
   116      3.583524  3 H  px                79      3.346858  2 H  py         
   184     -3.301885  5 H  py                25      2.861527  1 N  dxy        

 Vector   30  Occ=0.000000D+00  E= 8.018463D-01
              MO Center= -9.9D-05,  1.5D-05, -6.9D-05, r^2= 2.4D+00
   Bfn.  Coefficient  Atom+Function         Bfn.  Coefficient  Atom+Function  
  ----- ------------  ---------------      ----- ------------  ---------------
    32     13.288469  1 N  dxz               26      4.490013  1 N  dxz        
    83      4.317742  2 H  pz               186      4.315552  5 H  px         
   118     -3.949466  3 H  pz               151     -3.941474  4 H  px         
    34     -3.781344  1 N  dyz               80      3.384665  2 H  pz         
   183      3.382832  5 H  px               115     -3.095227  3 H  pz         

 Vector   31  Occ=0.000000D+00  E= 8.580882D-01
              MO Center=  1.3D-01,  4.3D-02,  1.3D-01, r^2= 3.6D+00
   Bfn.  Coefficient  Atom+Function         Bfn.  Coefficient  Atom+Function  
  ----- ------------  ---------------      ----- ------------  ---------------
   143     44.521871  4 H  s                108    -37.708910  3 H  s          
   178    -13.926614  5 H  s                152    -13.544634  4 H  py         
   117    -12.674759  3 H  py                13     -8.761989  1 N  py         
   153     -8.379451  4 H  pz               142      7.706902  4 H  s          
    73      7.032379  2 H  s                 34     -6.590778  1 N  dyz        

 Vector   32  Occ=0.000000D+00  E= 8.580929D-01
              MO Center=  8.1D-02, -4.0D-02, -1.1D-01, r^2= 3.6D+00
   Bfn.  Coefficient  Atom+Function         Bfn.  Coefficient  Atom+Function  
  ----- ------------  ---------------      ----- ------------  ---------------
   178     41.149261  5 H  s                108    -36.125148  3 H  s          
   143    -20.178666  4 H  s                 73     15.558933  2 H  s          
   188     14.186432  5 H  pz               153      8.519810  4 H  pz         
    14      8.239636  1 N  pz               116      7.907993  3 H  px         
   117     -7.898521  3 H  py               118      7.934669  3 H  pz         

 Vector   33  Occ=0.000000D+00  E= 8.581000D-01
              MO Center= -2.2D-01, -3.6D-03, -2.1D-02, r^2= 3.6D+00
   Bfn.  Coefficient  Atom+Function         Bfn.  Coefficient  Atom+Function  
  ----- ------------  ---------------      ----- ------------  ---------------
    73     49.514405  2 H  s                178    -29.254357  5 H  s          
   143    -18.413281  4 H  s                 81     15.873066  2 H  px         
   188     -8.533372  5 H  pz                72      8.476403  2 H  s          
    12      8.371763  1 N  px               151      7.423490  4 H  px         
   186      7.091282  5 H  px               116      6.553994  3 H  px         

 Vector   34  Occ=0.000000D+00  E= 9.058997D-01
              MO Center= -8.5D-04, -5.8D-05, -8.9D-04, r^2= 4.0D+00
   Bfn.  Coefficient  Atom+Function         Bfn.  Coefficient  Atom+Function  
  ----- ------------  ---------------      ----- ------------  ---------------
     5     22.849037  1 N  s                  3      7.088485  1 N  s          
    30     -5.640555  1 N  dxx               33     -5.648963  1 N  dyy        
    35     -5.641205  1 N  dzz                4     -5.390765  1 N  s          
    78     -3.224764  2 H  px               185     -3.234147  5 H  pz         
   114     -2.646878  3 H  py               149      2.562874  4 H  py         

 Vector   35  Occ=0.000000D+00  E= 1.094782D+00
              MO Center= -1.3D-01,  8.5D-03, -8.2D-02, r^2= 2.7D+00
   Bfn.  Coefficient  Atom+Function         Bfn.  Coefficient  Atom+Function  
  ----- ------------  ---------------      ----- ------------  ---------------
    73     24.389461  2 H  s                178    -21.836642  5 H  s          
   143    -11.615855  4 H  s                 72     10.733022  2 H  s          
   177     -9.602784  5 H  s                108      9.059332  3 H  s          
    81      8.158406  2 H  px                13      7.780475  1 N  py         
    12      7.369616  1 N  px               188     -7.263222  5 H  pz         

 Vector   36  Occ=0.000000D+00  E= 1.094806D+00
              MO Center=  1.2D-01,  8.4D-02,  8.9D-02, r^2= 2.7D+00
   Bfn.  Coefficient  Atom+Function         Bfn.  Coefficient  Atom+Function  
  ----- ------------  ---------------      ----- ------------  ---------------
   143     26.076609  4 H  s                108    -19.100484  3 H  s          
   178    -13.971363  5 H  s                142     11.459037  4 H  s          
    13     -9.313192  1 N  py               107     -8.416172  3 H  s          
   152     -7.570630  4 H  py                14     -7.471251  1 N  pz         
    73      7.011775  2 H  s                 34     -6.759587  1 N  dyz        

 Vector   37  Occ=0.000000D+00  E= 1.094813D+00
              MO Center=  1.8D-02, -9.2D-02, -6.8D-03, r^2= 2.7D+00
   Bfn.  Coefficient  Atom+Function         Bfn.  Coefficient  Atom+Function  
  ----- ------------  ---------------      ----- ------------  ---------------
   108     22.821092  3 H  s                 73    -17.944806  2 H  s          
   178    -17.145093  5 H  s                143     12.357813  4 H  s          
   107      9.976342  3 H  s                 12     -9.391629  1 N  px         
    72     -7.954902  2 H  s                 14     -7.687685  1 N  pz         
   177     -7.603871  5 H  s                 81     -6.738730  2 H  px         

 Vector   38  Occ=0.000000D+00  E= 1.465897D+00
              MO Center=  3.5D-02,  5.4D-03, -5.1D-02, r^2= 3.0D+00
   Bfn.  Coefficient  Atom+Function         Bfn.  Coefficient  Atom+Function  
  ----- ------------  ---------------      ----- ------------  ---------------
    12     56.630502  1 N  px                14     45.721182  1 N  pz         
    73     33.670078  2 H  s                143    -29.762098  4 H  s          
   108    -28.564042  3 H  s                178     26.681703  5 H  s          
    49    -14.068341  1 N  fxyy              46    -13.358638  1 N  fxxx       
    51    -11.728248  1 N  fxzz              53    -11.688123  1 N  fyyz       

 Vector   39  Occ=0.000000D+00  E= 1.465928D+00
              MO Center=  1.9D-01, -3.6D-02,  2.4D-01, r^2= 2.9D+00
   Bfn.  Coefficient  Atom+Function         Bfn.  Coefficient  Atom+Function  
  ----- ------------  ---------------      ----- ------------  ---------------
    14     56.597951  1 N  pz                12    -45.745311  1 N  px         
   178     42.475057  5 H  s                 73    -37.879916  2 H  s          
   143    -14.433043  4 H  s                 55    -13.632070  1 N  fzzz       
    48    -12.553936  1 N  fxxz              53    -12.380494  1 N  fyyz       
    46     11.135375  1 N  fxxx              51     10.080910  1 N  fxzz       

 Vector   40  Occ=0.000000D+00  E= 1.465947D+00
              MO Center= -2.3D-01,  3.0D-02, -2.0D-01, r^2= 2.9D+00
   Bfn.  Coefficient  Atom+Function         Bfn.  Coefficient  Atom+Function  
  ----- ------------  ---------------      ----- ------------  ---------------
    13     72.771370  1 N  py               108     41.439891  3 H  s          
   143    -39.157426  4 H  s                 47    -17.079702  1 N  fxxy       
    54    -16.990916  1 N  fyzz              52    -16.856503  1 N  fyyy       
   178    -13.270670  5 H  s                 10    -12.643015  1 N  py         
    73     11.055986  2 H  s                107      8.920820  3 H  s          

 Vector   41  Occ=0.000000D+00  E= 1.546383D+00
              MO Center=  1.1D-02,  7.3D-04,  1.1D-02, r^2= 2.3D+00
   Bfn.  Coefficient  Atom+Function         Bfn.  Coefficient  Atom+Function  
  ----- ------------  ---------------      ----- ------------  ---------------
     5     14.633810  1 N  s                  4     -6.712420  1 N  s          
     3     -4.380990  1 N  s                142     -3.904639  4 H  s          
   107     -3.864651  3 H  s                143     -3.707434  4 H  s          
   108     -3.546948  3 H  s                 72     -3.527707  2 H  s          
   177     -3.519691  5 H  s                 90      2.712726  2 H  dxx        

 Vector   42  Occ=0.000000D+00  E= 1.749537D+00
              MO Center=  1.4D-01,  7.8D-03,  3.9D-02, r^2= 2.0D+00
   Bfn.  Coefficient  Atom+Function         Bfn.  Coefficient  Atom+Function  
  ----- ------------  ---------------      ----- ------------  ---------------
   115      3.573392  3 H  pz               118      3.352508  3 H  pz         
   184     -3.090968  5 H  py               199     -2.966586  5 H  dyz        
   187     -2.898424  5 H  py                54      2.716197  1 N  fyzz       
    50      2.680560  1 N  fxyz             129      2.684465  3 H  dyz        
   149      2.528336  4 H  py               148     -2.408016  4 H  px         

 Vector   43  Occ=0.000000D+00  E= 1.749555D+00
              MO Center= -5.6D-02,  7.0D-02,  4.8D-02, r^2= 2.0D+00
   Bfn.  Coefficient  Atom+Function         Bfn.  Coefficient  Atom+Function  
  ----- ------------  ---------------      ----- ------------  ---------------
    79     -3.357120  2 H  py                91     -3.311409  2 H  dxy        
   148     -3.296292  4 H  px                47      3.180625  1 N  fxxy       
    82     -3.147482  2 H  py               151     -3.094351  4 H  px         
   184      2.799822  5 H  py               161      2.727898  4 H  dxy        
   199      2.663826  5 H  dyz              187      2.624684  5 H  py         

 Vector   44  Occ=0.000000D+00  E= 1.749562D+00
              MO Center= -8.3D-02, -7.8D-02, -8.7D-02, r^2= 2.0D+00
   Bfn.  Coefficient  Atom+Function         Bfn.  Coefficient  Atom+Function  
  ----- ------------  ---------------      ----- ------------  ---------------
   183      4.021351  5 H  px               197      3.803692  5 H  dxz        
   186      3.772815  5 H  px                80     -3.562036  2 H  pz         
    83     -3.340341  2 H  pz                92     -3.220320  2 H  dxz        
    51     -2.937767  1 N  fxzz             113     -2.626273  3 H  px         
    50      2.504434  1 N  fxyz             116     -2.460474  3 H  px         

 Vector   45  Occ=0.000000D+00  E= 1.862647D+00
              MO Center=  7.5D-06, -2.8D-06,  7.4D-06, r^2= 1.9D+00
   Bfn.  Coefficient  Atom+Function         Bfn.  Coefficient  Atom+Function  
  ----- ------------  ---------------      ----- ------------  ---------------
    32     13.318201  1 N  dxz               80      6.210902  2 H  pz         
   183      6.209281  5 H  px               115     -5.656347  3 H  pz         
   148     -5.647126  4 H  px                34     -3.735092  1 N  dyz        
    83      3.049424  2 H  pz               186      3.048929  5 H  px         
    31      2.897385  1 N  dxy              149      2.828492  4 H  py         

 Vector   46  Occ=0.000000D+00  E= 1.862711D+00
              MO Center= -2.0D-06,  6.4D-06, -5.8D-06, r^2= 1.9D+00
   Bfn.  Coefficient  Atom+Function         Bfn.  Coefficient  Atom+Function  
  ----- ------------  ---------------      ----- ------------  ---------------
    31      8.500301  1 N  dxy               34     -8.517595  1 N  dyz        
    79      6.142427  2 H  py               184     -6.061386  5 H  py         
   150      5.201315  4 H  pz               113      5.139443  3 H  px         
    33      5.003698  1 N  dyy               82      3.017279  2 H  py         
   187     -2.978235  5 H  py               149     -2.870804  4 H  py         

 Vector   47  Occ=0.000000D+00  E= 1.973181D+00
              MO Center= -7.0D-02,  5.9D-03, -4.5D-02, r^2= 2.0D+00
   Bfn.  Coefficient  Atom+Function         Bfn.  Coefficient  Atom+Function  
  ----- ------------  ---------------      ----- ------------  ---------------
    73     13.889934  2 H  s                 13     13.222656  1 N  py         
   178    -12.860445  5 H  s                 12      9.838925  1 N  px         
    14     -8.772004  1 N  pz               143     -8.326867  4 H  s          
   108      7.328224  3 H  s                 81      6.696108  2 H  px         
   188     -6.270964  5 H  pz                49     -5.462363  1 N  fxyy       

 Vector   48  Occ=0.000000D+00  E= 1.973196D+00
              MO Center=  6.4D-02,  2.6D-02,  5.0D-02, r^2= 2.0D+00
   Bfn.  Coefficient  Atom+Function         Bfn.  Coefficient  Atom+Function  
  ----- ------------  ---------------      ----- ------------  ---------------
   143    -14.233189  4 H  s                 13     13.014353  1 N  py         
   108     12.395727  3 H  s                 14     10.932611  1 N  pz         
   178      8.812364  5 H  s                 12     -7.740729  1 N  px         
    73     -6.916562  2 H  s                 34     -6.492751  1 N  dyz        
    50      6.282875  1 N  fxyz              31     -6.236144  1 N  dxy        

 Vector   49  Occ=0.000000D+00  E= 1.973203D+00
              MO Center=  5.9D-03, -3.1D-02, -4.3D-03, r^2= 2.0D+00
   Bfn.  Coefficient  Atom+Function         Bfn.  Coefficient  Atom+Function  
  ----- ------------  ---------------      ----- ------------  ---------------
    12     13.856478  1 N  px                14     12.341522  1 N  pz         
   108    -12.315597  3 H  s                 73     11.084498  2 H  s          
   178     10.983143  5 H  s                143     -9.313543  4 H  s          
    51     -6.749313  1 N  fxzz              48     -6.505133  1 N  fxxz       
   117     -5.661110  3 H  py               152      4.657120  4 H  py         

 Vector   50  Occ=0.000000D+00  E= 2.119920D+00
              MO Center=  8.1D-02,  8.4D-02, -6.5D-02, r^2= 1.7D+00
   Bfn.  Coefficient  Atom+Function         Bfn.  Coefficient  Atom+Function  
  ----- ------------  ---------------      ----- ------------  ---------------
    54      4.083591  1 N  fyzz             196      3.347270  5 H  dxy        
    47     -2.782962  1 N  fxxy             184     -2.581824  5 H  py         
    94     -2.481377  2 H  dyz              164      2.082708  4 H  dyz        
   150     -1.994132  4 H  pz               115      1.893916  3 H  pz         
    53     -1.865080  1 N  fyyz             126     -1.807618  3 H  dxy        

 Vector   51  Occ=0.000000D+00  E= 2.119940D+00
              MO Center=  2.1D-02, -9.6D-02,  1.5D-01, r^2= 1.6D+00
   Bfn.  Coefficient  Atom+Function         Bfn.  Coefficient  Atom+Function  
  ----- ------------  ---------------      ----- ------------  ---------------
    47      3.600126  1 N  fxxy             162      2.995217  4 H  dxz        
   127     -2.795816  3 H  dxz               79     -2.137768  2 H  py         
   113      2.120202  3 H  px               129     -2.111280  3 H  dyz        
    94      2.028713  2 H  dyz               51      1.836575  1 N  fxzz       
    60     -1.830890  1 N  gxxyz             52     -1.690407  1 N  fyyy       

 Vector   52  Occ=0.000000D+00  E= 2.119992D+00
              MO Center= -1.0D-01,  1.3D-02, -8.3D-02, r^2= 1.7D+00
   Bfn.  Coefficient  Atom+Function         Bfn.  Coefficient  Atom+Function  
  ----- ------------  ---------------      ----- ------------  ---------------
    50      4.435481  1 N  fxyz              51     -3.010619  1 N  fxzz       
    48      2.781542  1 N  fxxz              80     -2.543931  2 H  pz         
   183      2.525444  5 H  px               162      2.300763  4 H  dxz        
   127     -2.187844  3 H  dxz               94      2.073457  2 H  dyz        
    92     -2.013040  2 H  dxz              148     -1.949110  4 H  px         

 Vector   53  Occ=0.000000D+00  E= 2.165325D+00
              MO Center= -1.0D-03, -2.6D-05, -1.1D-03, r^2= 2.0D+00
   Bfn.  Coefficient  Atom+Function         Bfn.  Coefficient  Atom+Function  
  ----- ------------  ---------------      ----- ------------  ---------------
     3     46.250109  1 N  s                  4    -26.893660  1 N  s          
     5     13.481730  1 N  s                108     -9.001477  3 H  s          
   143     -9.031704  4 H  s                 73     -8.699690  2 H  s          
   178     -8.698562  5 H  s                 24      5.945653  1 N  dxx        
    27      5.965982  1 N  dyy               29      5.946765  1 N  dzz        

 Vector   54  Occ=0.000000D+00  E= 2.184016D+00
              MO Center= -1.5D-04,  3.3D-06, -8.4D-05, r^2= 1.9D+00
   Bfn.  Coefficient  Atom+Function         Bfn.  Coefficient  Atom+Function  
  ----- ------------  ---------------      ----- ------------  ---------------
    31      8.177538  1 N  dxy               34     -8.189382  1 N  dyz        
    25      5.985778  1 N  dxy               28     -5.993781  1 N  dyz        
    33      4.844921  1 N  dyy               79      4.439817  2 H  py         
   184     -4.381226  5 H  py               150      3.774024  4 H  pz         
    82      3.735099  2 H  py               113      3.730677  3 H  px         

 Vector   55  Occ=0.000000D+00  E= 2.184046D+00
              MO Center= -1.1D-04, -2.0D-05, -3.5D-05, r^2= 1.9D+00
   Bfn.  Coefficient  Atom+Function         Bfn.  Coefficient  Atom+Function  
  ----- ------------  ---------------      ----- ------------  ---------------
    32     12.826010  1 N  dxz               26      9.387766  1 N  dxz        
    80      4.492747  2 H  pz               183      4.491552  5 H  px         
   115     -4.103079  3 H  pz               148     -4.095532  4 H  px         
    83      3.778776  2 H  pz               186      3.777192  5 H  px         
    34     -3.631060  1 N  dyz              118     -3.451370  3 H  pz         

 Vector   56  Occ=0.000000D+00  E= 2.293601D+00
              MO Center=  1.9D-02,  3.6D-03,  1.7D-02, r^2= 2.3D+00
   Bfn.  Coefficient  Atom+Function         Bfn.  Coefficient  Atom+Function  
  ----- ------------  ---------------      ----- ------------  ---------------
   143     37.142964  4 H  s                108    -33.626774  3 H  s          
    13    -21.259094  1 N  py               178    -14.166367  5 H  s          
   142     13.769922  4 H  s                107    -12.331618  3 H  s          
    14    -11.999260  1 N  pz               152    -10.879171  4 H  py         
    54     10.607722  1 N  fyzz              73     10.455937  2 H  s          

 Vector   57  Occ=0.000000D+00  E= 2.293610D+00
              MO Center=  4.9D-03, -4.7D-03, -9.6D-03, r^2= 2.3D+00
   Bfn.  Coefficient  Atom+Function         Bfn.  Coefficient  Atom+Function  
  ----- ------------  ---------------      ----- ------------  ---------------
   178    -31.333136  5 H  s                108     30.144094  3 H  s          
    73    -21.684643  2 H  s                143     21.441909  4 H  s          
    14    -19.119473  1 N  pz                12    -16.738706  1 N  px         
   107     11.639921  3 H  s                 48     11.154391  1 N  fxxz       
   177    -11.035802  5 H  s                188    -10.706332  5 H  pz         

 Vector   58  Occ=0.000000D+00  E= 2.293651D+00
              MO Center= -2.6D-02,  9.3D-04, -9.8D-03, r^2= 2.3D+00
   Bfn.  Coefficient  Atom+Function         Bfn.  Coefficient  Atom+Function  
  ----- ------------  ---------------      ----- ------------  ---------------
    73     39.438893  2 H  s                178    -30.870971  5 H  s          
    12     17.762676  1 N  px               143    -15.962579  4 H  s          
    72     14.457907  2 H  s                 13     13.945503  1 N  py         
    14    -12.438650  1 N  pz                81     12.058061  2 H  px         
   177    -11.473687  5 H  s                 49     -9.975889  1 N  fxyy       

 Vector   59  Occ=0.000000D+00  E= 2.461929D+00
              MO Center= -9.3D-04, -4.0D-05, -9.2D-04, r^2= 2.2D+00
   Bfn.  Coefficient  Atom+Function         Bfn.  Coefficient  Atom+Function  
  ----- ------------  ---------------      ----- ------------  ---------------
     5     14.122225  1 N  s                  4      8.182987  1 N  s          
    30     -7.935467  1 N  dxx               33     -7.928097  1 N  dyy        
    35     -7.937676  1 N  dzz                3     -6.607921  1 N  s          
    78     -6.170781  2 H  px               185     -6.184622  5 H  pz         
   114     -5.063756  3 H  py               149      4.906481  4 H  py         

 Vector   60  Occ=0.000000D+00  E= 2.549704D+00
              MO Center=  7.6D-02,  6.8D-03,  8.1D-02, r^2= 2.1D+00
   Bfn.  Coefficient  Atom+Function         Bfn.  Coefficient  Atom+Function  
  ----- ------------  ---------------      ----- ------------  ---------------
   143    -26.555714  4 H  s                108     25.100460  3 H  s          
    13     15.557122  1 N  py               142    -15.404153  4 H  s          
   107     14.520195  3 H  s                 73     11.311426  2 H  s          
   178     -9.814027  5 H  s                149      8.791472  4 H  py         
   114      8.542260  3 H  py               152      8.550642  4 H  py         

 Vector   61  Occ=0.000000D+00  E= 2.549725D+00
              MO Center=  2.1D-02,  8.4D-02, -1.4D-01, r^2= 2.1D+00
   Bfn.  Coefficient  Atom+Function         Bfn.  Coefficient  Atom+Function  
  ----- ------------  ---------------      ----- ------------  ---------------
   178     32.673225  5 H  s                143    -19.037802  4 H  s          
   177     18.865106  5 H  s                 14     15.419844  1 N  pz         
   185     13.881472  5 H  pz               188     11.272073  5 H  pz         
    73    -11.155232  2 H  s                142    -11.091021  4 H  s          
   200      8.333260  5 H  dzz               34      7.120734  1 N  dyz        

 Vector   62  Occ=0.000000D+00  E= 2.549735D+00
              MO Center= -9.7D-02, -9.1D-02,  5.7D-02, r^2= 2.1D+00
   Bfn.  Coefficient  Atom+Function         Bfn.  Coefficient  Atom+Function  
  ----- ------------  ---------------      ----- ------------  ---------------
    73     30.328751  2 H  s                108    -23.077090  3 H  s          
    72     17.494663  2 H  s                 12     15.330019  1 N  px         
   107    -13.443652  3 H  s                 78     12.786781  2 H  px         
    81     10.663557  2 H  px               143     -9.965102  4 H  s          
   114     -8.529850  3 H  py                90      7.725272  2 H  dxx        

 Vector   63  Occ=0.000000D+00  E= 2.621412D+00
              MO Center= -6.7D-05,  1.7D-05, -5.5D-05, r^2= 1.9D+00
   Bfn.  Coefficient  Atom+Function         Bfn.  Coefficient  Atom+Function  
  ----- ------------  ---------------      ----- ------------  ---------------
    25      5.658775  1 N  dxy               28     -5.677926  1 N  dyz        
    31     -5.612859  1 N  dxy               34      5.632043  1 N  dyz        
    64     -3.366209  1 N  gxyzz             27      3.282071  1 N  dyy        
    33     -3.261428  1 N  dyy               91      3.214107  2 H  dxy        
   199     -3.217191  5 H  dyz              129     -3.061479  3 H  dyz        

 Vector   64  Occ=0.000000D+00  E= 2.621444D+00
              MO Center= -6.0D-06, -2.3D-05,  2.1D-05, r^2= 1.9D+00
   Bfn.  Coefficient  Atom+Function         Bfn.  Coefficient  Atom+Function  
  ----- ------------  ---------------      ----- ------------  ---------------
    26      8.827978  1 N  dxz               32     -8.757314  1 N  dxz        
    92      4.846639  2 H  dxz              197      4.852902  5 H  dxz        
   127      4.711375  3 H  dxz              162      4.711499  4 H  dxz        
    58     -2.778188  1 N  gxxxz             60      2.788315  1 N  gxxyz      
    80      2.730746  2 H  pz               183      2.731983  5 H  px         

 Vector   65  Occ=0.000000D+00  E= 2.922363D+00
              MO Center= -2.3D-02, -1.4D-03, -6.8D-03, r^2= 1.6D+00
   Bfn.  Coefficient  Atom+Function         Bfn.  Coefficient  Atom+Function  
  ----- ------------  ---------------      ----- ------------  ---------------
    72     16.473337  2 H  s                 73     12.036131  2 H  s          
   177    -11.520024  5 H  s                 12     10.057475  1 N  px         
   178     -8.501523  5 H  s                 95      6.338714  2 H  dzz        
    14     -6.194654  1 N  pz                93      5.743394  2 H  dyy        
    46      5.347008  1 N  fxxx              51      5.086738  1 N  fxzz       

 Vector   66  Occ=0.000000D+00  E= 2.922408D+00
              MO Center=  5.3D-03,  6.1D-03, -8.3D-03, r^2= 1.6D+00
   Bfn.  Coefficient  Atom+Function         Bfn.  Coefficient  Atom+Function  
  ----- ------------  ---------------      ----- ------------  ---------------
   177     13.596300  5 H  s                142    -10.873741  4 H  s          
    14     10.631091  1 N  pz               178      9.757191  5 H  s          
   107     -8.583137  3 H  s                143     -8.208638  4 H  s          
    12      6.590371  1 N  px                72      6.499530  2 H  s          
   108     -6.524862  3 H  s                 53      5.648494  1 N  fyyz       

 Vector   67  Occ=0.000000D+00  E= 2.922426D+00
              MO Center=  1.7D-02, -4.8D-03,  1.5D-02, r^2= 1.6D+00
   Bfn.  Coefficient  Atom+Function         Bfn.  Coefficient  Atom+Function  
  ----- ------------  ---------------      ----- ------------  ---------------
   107     15.369073  3 H  s                142    -13.379130  4 H  s          
    13     11.801677  1 N  py               108     11.279568  3 H  s          
   143     -9.806630  4 H  s                 52      6.173839  1 N  fyyy       
    47      6.133783  1 N  fxxy              54      6.103942  1 N  fyzz       
   130      5.378699  3 H  dzz               31      4.805384  1 N  dxy        

 Vector   68  Occ=0.000000D+00  E= 3.077158D+00
              MO Center= -5.6D-03, -2.8D-02, -4.2D-03, r^2= 2.2D+00
   Bfn.  Coefficient  Atom+Function         Bfn.  Coefficient  Atom+Function  
  ----- ------------  ---------------      ----- ------------  ---------------
    14     70.161106  1 N  pz                12     69.229291  1 N  px         
   143    -30.661674  4 H  s                178     30.209919  5 H  s          
    73     28.587206  2 H  s                108    -25.300479  3 H  s          
    53    -20.434972  1 N  fyyz              49    -20.184216  1 N  fxyy       
    55    -18.255661  1 N  fzzz              46    -17.726436  1 N  fxxx       

 Vector   69  Occ=0.000000D+00  E= 3.077232D+00
              MO Center= -6.9D-02,  2.9D-02, -7.5D-02, r^2= 2.2D+00
   Bfn.  Coefficient  Atom+Function         Bfn.  Coefficient  Atom+Function  
  ----- ------------  ---------------      ----- ------------  ---------------
    13     70.044441  1 N  py                12    -51.286452  1 N  px         
    14     46.924685  1 N  pz               108     37.152411  3 H  s          
   143    -33.270661  4 H  s                 73    -22.131887  2 H  s          
    52    -18.501917  1 N  fyyy             178     18.288310  5 H  s          
    47    -16.480188  1 N  fxxy              54    -15.878152  1 N  fyzz       

 Vector   70  Occ=0.000000D+00  E= 3.077237D+00
              MO Center=  7.1D-02, -6.1D-04,  7.5D-02, r^2= 2.2D+00
   Bfn.  Coefficient  Atom+Function         Bfn.  Coefficient  Atom+Function  
  ----- ------------  ---------------      ----- ------------  ---------------
    13     69.423719  1 N  py                14    -51.078276  1 N  pz         
    12     48.064472  1 N  px               178    -35.745299  5 H  s          
    73     34.867966  2 H  s                108     20.672072  3 H  s          
   143    -19.765583  4 H  s                 54    -19.265899  1 N  fyzz       
    47    -19.035804  1 N  fxxy              52    -16.259757  1 N  fyyy       

 Vector   71  Occ=0.000000D+00  E= 3.194974D+00
              MO Center=  6.5D-03,  4.0D-04,  6.6D-03, r^2= 1.7D+00
   Bfn.  Coefficient  Atom+Function         Bfn.  Coefficient  Atom+Function  
  ----- ------------  ---------------      ----- ------------  ---------------
     3     20.054078  1 N  s                  5    -12.187077  1 N  s          
    78     -7.118995  2 H  px               185     -7.136531  5 H  pz         
   114     -6.061975  3 H  py               149      5.902703  4 H  py         
   142      5.397442  4 H  s                107      5.356977  3 H  s          
    72      5.024018  2 H  s                177      5.016617  5 H  s          

 Vector   72  Occ=0.000000D+00  E= 3.248933D+00
              MO Center=  1.5D-02, -2.6D-03,  1.1D-02, r^2= 1.6D+00
   Bfn.  Coefficient  Atom+Function         Bfn.  Coefficient  Atom+Function  
  ----- ------------  ---------------      ----- ------------  ---------------
    50     16.087455  1 N  fxyz              51    -10.450216  1 N  fxzz       
    48      9.760621  1 N  fxxz              53     -6.413707  1 N  fyyz       
    49      5.550793  1 N  fxyy              47      3.948248  1 N  fxxy       
    94      3.538686  2 H  dyz              196      3.129067  5 H  dxy        
   129     -2.734506  3 H  dyz              161     -2.716440  4 H  dxy        

 Vector   73  Occ=0.000000D+00  E= 3.249013D+00
              MO Center= -8.3D-03,  8.2D-03, -1.7D-02, r^2= 1.6D+00
   Bfn.  Coefficient  Atom+Function         Bfn.  Coefficient  Atom+Function  
  ----- ------------  ---------------      ----- ------------  ---------------
    47     11.069485  1 N  fxxy              54      7.379407  1 N  fyzz       
    51      7.099100  1 N  fxzz              52     -6.137602  1 N  fyyy       
    48     -4.899524  1 N  fxxz              53     -3.555288  1 N  fyyz       
    46     -3.501897  1 N  fxxx              49      3.405979  1 N  fxyy       
   161     -3.203995  4 H  dxy              129     -3.038689  3 H  dyz        

 Vector   74  Occ=0.000000D+00  E= 3.249044D+00
              MO Center= -6.9D-03, -5.6D-03,  6.3D-03, r^2= 1.6D+00
   Bfn.  Coefficient  Atom+Function         Bfn.  Coefficient  Atom+Function  
  ----- ------------  ---------------      ----- ------------  ---------------
    54     13.707669  1 N  fyzz              47    -11.881366  1 N  fxxy       
    53     -6.219874  1 N  fyyz              49     -4.540955  1 N  fxyy       
   196      3.796403  5 H  dxy               48     -3.447400  1 N  fxxz       
   199      3.443564  5 H  dyz               55      3.224165  1 N  fzzz       
    94     -3.158349  2 H  dyz               91     -3.083063  2 H  dxy        

 Vector   75  Occ=0.000000D+00  E= 3.627499D+00
              MO Center= -6.4D-03, -2.3D-03,  8.7D-04, r^2= 1.6D+00
   Bfn.  Coefficient  Atom+Function         Bfn.  Coefficient  Atom+Function  
  ----- ------------  ---------------      ----- ------------  ---------------
    51     13.238079  1 N  fxzz              53    -12.824942  1 N  fyyz       
    72     10.163060  2 H  s                 50      9.357185  1 N  fxyz       
    24     -7.038646  1 N  dxx               54     -6.850189  1 N  fyzz       
    25     -6.015801  1 N  dxy               30     -5.914533  1 N  dxx        
    47     -5.365431  1 N  fxxy             162     -5.356671  4 H  dxz        

 Vector   76  Occ=0.000000D+00  E= 3.627560D+00
              MO Center=  2.3D-03,  2.4D-03, -4.7D-03, r^2= 1.6D+00
   Bfn.  Coefficient  Atom+Function         Bfn.  Coefficient  Atom+Function  
  ----- ------------  ---------------      ----- ------------  ---------------
    48     16.305407  1 N  fxxz              49    -12.376549  1 N  fxyy       
   177      9.441891  5 H  s                 51      8.317091  1 N  fxzz       
    50     -7.722167  1 N  fxyz              28      6.813213  1 N  dyz        
   127     -6.173862  3 H  dxz               29     -6.074159  1 N  dzz        
   142     -5.814650  4 H  s                 34      5.738465  1 N  dyz        

 Vector   77  Occ=0.000000D+00  E= 3.627669D+00
              MO Center=  4.2D-03, -6.0D-05,  3.9D-03, r^2= 1.6D+00
   Bfn.  Coefficient  Atom+Function         Bfn.  Coefficient  Atom+Function  
  ----- ------------  ---------------      ----- ------------  ---------------
    50     25.681788  1 N  fxyz              25     -9.403585  1 N  dxy        
    49     -9.397141  1 N  fxyy              53      9.036446  1 N  fyyz       
    28     -8.656988  1 N  dyz              107     -8.246966  3 H  s          
   142      8.247376  4 H  s                 31     -7.921486  1 N  dxy        
    34     -7.294255  1 N  dyz              196      6.788745  5 H  dxy        

 Vector   78  Occ=0.000000D+00  E= 3.898102D+00
              MO Center= -6.4D-02,  2.3D-02, -4.0D-02, r^2= 1.4D+00
   Bfn.  Coefficient  Atom+Function         Bfn.  Coefficient  Atom+Function  
  ----- ------------  ---------------      ----- ------------  ---------------
    50     12.320817  1 N  fxyz              80    -10.899445  2 H  pz         
   183     10.519095  5 H  px                51     -9.437336  1 N  fxzz       
    48      9.016204  1 N  fxxz             148     -7.444430  4 H  px         
   115      5.878400  3 H  pz                92     -5.383956  2 H  dxz        
   197      5.179749  5 H  dxz               49      4.265741  1 N  fxyy       

 Vector   79  Occ=0.000000D+00  E= 3.898123D+00
              MO Center=  2.0D-02, -3.1D-02,  7.4D-02, r^2= 1.4D+00
   Bfn.  Coefficient  Atom+Function         Bfn.  Coefficient  Atom+Function  
  ----- ------------  ---------------      ----- ------------  ---------------
    47     10.963255  1 N  fxxy              79     -8.732053  2 H  py         
   113      8.273253  3 H  px               148     -7.120757  4 H  px         
   114      6.725682  3 H  py               149      5.793454  4 H  py         
    52     -5.152038  1 N  fyyy              54      4.477477  1 N  fyzz       
   150     -4.364911  4 H  pz                49      4.215970  1 N  fxyy       

 Vector   80  Occ=0.000000D+00  E= 3.898125D+00
              MO Center=  4.4D-02,  7.7D-03, -3.4D-02, r^2= 1.4D+00
   Bfn.  Coefficient  Atom+Function         Bfn.  Coefficient  Atom+Function  
  ----- ------------  ---------------      ----- ------------  ---------------
    54     12.076313  1 N  fyzz             184    -10.359170  5 H  py         
   115      8.627358  3 H  pz                47     -7.948833  1 N  fxxy       
   150     -7.510047  4 H  pz                79      6.687481  2 H  py         
    53     -6.199904  1 N  fyyz             199     -4.481032  5 H  dyz        
   113     -4.327304  3 H  px               149      4.166245  4 H  py         

 Vector   81  Occ=0.000000D+00  E= 4.286314D+00
              MO Center= -2.4D-03, -1.4D-04, -2.4D-03, r^2= 1.6D+00
   Bfn.  Coefficient  Atom+Function         Bfn.  Coefficient  Atom+Function  
  ----- ------------  ---------------      ----- ------------  ---------------
     3    117.972076  1 N  s                  4    -57.853060  1 N  s          
    78    -26.443572  2 H  px               185    -26.523011  5 H  pz         
   114    -21.682932  3 H  py               149     20.980402  4 H  py         
    73    -19.314297  2 H  s                178    -19.348987  5 H  s          
   108    -17.856260  3 H  s                143    -17.709050  4 H  s          

 Vector   82  Occ=0.000000D+00  E= 4.290192D+00
              MO Center= -8.3D-06, -1.9D-05,  1.0D-05, r^2= 1.5D+00
   Bfn.  Coefficient  Atom+Function         Bfn.  Coefficient  Atom+Function  
  ----- ------------  ---------------      ----- ------------  ---------------
    79     12.944675  2 H  py               184    -12.656671  5 H  py         
   113     12.203392  3 H  px               150     12.124317  4 H  pz         
    31      9.425419  1 N  dxy               34     -9.208464  1 N  dyz        
    25      8.834113  1 N  dxy               28     -8.629954  1 N  dyz        
   149     -7.747180  4 H  py               114      7.455981  3 H  py         

 Vector   83  Occ=0.000000D+00  E= 4.290197D+00
              MO Center=  1.7D-06,  6.9D-06,  1.2D-05, r^2= 1.5D+00
   Bfn.  Coefficient  Atom+Function         Bfn.  Coefficient  Atom+Function  
[...]
   142     27.261867  4 H  s                 10    -26.638923  1 N  py         
    62     24.195917  1 N  gxyyy             29    -23.198970  1 N  dzz        
    64     21.609760  1 N  gxyzz             67     21.162922  1 N  gyyyz      

 Vector  188  Occ=0.000000D+00  E= 1.599656D+01
              MO Center= -3.6D-03, -1.2D-04, -3.7D-03, r^2= 5.0D-01
   Bfn.  Coefficient  Atom+Function         Bfn.  Coefficient  Atom+Function  
  ----- ------------  ---------------      ----- ------------  ---------------
    41      9.904540  1 N  fxzz              40     -9.006319  1 N  fxyz       
    38     -8.439070  1 N  fxxz             191     -4.905856  5 H  dxz        
    51      4.777972  1 N  fxzz              86      4.671962  2 H  dxz        
   183     -4.469389  5 H  px                50     -4.331343  1 N  fxyz       
    80      4.349832  2 H  pz               180     -4.309562  5 H  px         

 Vector  189  Occ=0.000000D+00  E= 1.599668D+01
              MO Center= -1.2D-03,  1.1D-04,  1.7D-03, r^2= 5.0D-01
   Bfn.  Coefficient  Atom+Function         Bfn.  Coefficient  Atom+Function  
  ----- ------------  ---------------      ----- ------------  ---------------
    37     11.718974  1 N  fxxy              44     -8.583764  1 N  fyzz       
    63      7.009331  1 N  gxyyz             47      5.657551  1 N  fxxy       
    39      4.859903  1 N  fxyy              60      4.719002  1 N  gxxyz      
    85     -4.284370  2 H  dxy               54     -4.099980  1 N  fyzz       
    79     -4.062073  2 H  py                68     -3.908193  1 N  gyyzz      

 Vector  190  Occ=0.000000D+00  E= 1.599709D+01
              MO Center=  5.8D-03,  1.2D-04,  2.5D-03, r^2= 5.0D-01
   Bfn.  Coefficient  Atom+Function         Bfn.  Coefficient  Atom+Function  
  ----- ------------  ---------------      ----- ------------  ---------------
    40      9.186171  1 N  fxyz              44      8.608771  1 N  fyzz       
    60      7.856716  1 N  gxxyz             64      7.867492  1 N  gxyzz      
    43     -6.688109  1 N  fyyz              37      5.310713  1 N  fxxy       
    42     -4.645215  1 N  fyyy              50      4.449426  1 N  fxyz       
    54      4.182819  1 N  fyzz             115      3.824113  3 H  pz         

 Vector  191  Occ=0.000000D+00  E= 1.626826D+01
              MO Center= -2.3D-01, -7.5D-02,  5.3D-02, r^2= 7.3D-01
   Bfn.  Coefficient  Atom+Function         Bfn.  Coefficient  Atom+Function  
  ----- ------------  ---------------      ----- ------------  ---------------
    78     62.262695  2 H  px               114    -25.099182  3 H  py         
   101    -23.875537  2 H  fxzz              99    -23.693479  2 H  fxyy       
    96    -22.609363  2 H  fxxx              72     20.815347  2 H  s          
   185    -18.108869  5 H  pz                75    -17.602150  2 H  px         
    90     15.503949  2 H  dxx              149     15.053537  4 H  py         

 Vector  192  Occ=0.000000D+00  E= 1.626832D+01
              MO Center=  7.5D-02,  9.6D-02, -1.9D-01, r^2= 7.4D-01
   Bfn.  Coefficient  Atom+Function         Bfn.  Coefficient  Atom+Function  
  ----- ------------  ---------------      ----- ------------  ---------------
   185     59.394708  5 H  pz               149     30.807781  4 H  py         
   203    -22.920445  5 H  fxxz             208    -22.495190  5 H  fyyz       
   210    -21.505111  5 H  fzzz             177     19.924369  5 H  s          
   114    -19.374141  3 H  py               182    -16.761660  5 H  pz         
   150     16.459740  4 H  pz                14     15.010757  1 N  pz         

 Vector  193  Occ=0.000000D+00  E= 1.626848D+01
              MO Center=  1.5D-01, -2.2D-02,  1.4D-01, r^2= 7.5D-01
   Bfn.  Coefficient  Atom+Function         Bfn.  Coefficient  Atom+Function  
  ----- ------------  ---------------      ----- ------------  ---------------
   114     41.540778  3 H  py               149     37.318644  4 H  py         
   113    -31.962755  3 H  px               150     30.602511  4 H  pz         
   107     17.278663  3 H  s                148     16.441140  4 H  px         
   142    -16.225241  4 H  s                139    -15.712671  3 H  fyzz       
   132    -15.214338  3 H  fxxy              13     15.134022  1 N  py         

 Vector  194  Occ=0.000000D+00  E= 1.779413D+01
              MO Center=  6.4D-06,  1.3D-05,  2.1D-05, r^2= 6.6D-01
   Bfn.  Coefficient  Atom+Function         Bfn.  Coefficient  Atom+Function  
  ----- ------------  ---------------      ----- ------------  ---------------
     3     36.542816  1 N  s                  4    -22.183366  1 N  s          
    78     19.523400  2 H  px               185     19.577050  5 H  pz         
   114     16.190598  3 H  py               149    -15.697088  4 H  py         
    61     11.374969  1 N  gxxzz            150    -11.357756  4 H  pz         
   113    -11.190442  3 H  px                99    -10.872851  2 H  fxyy       

 Vector  195  Occ=0.000000D+00  E= 1.999405D+01
              MO Center= -1.8D-06,  8.6D-07, -2.5D-06, r^2= 4.5D-01
   Bfn.  Coefficient  Atom+Function         Bfn.  Coefficient  Atom+Function  
  ----- ------------  ---------------      ----- ------------  ---------------
    26     90.817689  1 N  dxz               63    -45.250649  1 N  gxyyz      
    58    -44.971037  1 N  gxxxz             65    -45.006868  1 N  gxzzz      
    28    -22.708800  1 N  dyz               27    -19.581387  1 N  dyy        
    25     17.041359  1 N  dxy               80     16.623289  2 H  pz         
   183     16.652723  5 H  px               115    -14.724851  3 H  pz         

 Vector  196  Occ=0.000000D+00  E= 1.999415D+01
              MO Center=  4.4D-06, -1.3D-07,  3.8D-06, r^2= 4.5D-01
   Bfn.  Coefficient  Atom+Function         Bfn.  Coefficient  Atom+Function  
  ----- ------------  ---------------      ----- ------------  ---------------
    28    -58.963881  1 N  dyz               25     58.609874  1 N  dxy        
    27     33.144884  1 N  dyy               57    -29.430939  1 N  gxxxy      
    69     29.567533  1 N  gyzzz             67     29.024411  1 N  gyyyz      
    60     28.859132  1 N  gxxyz             62    -28.848054  1 N  gxyyy      
    64    -28.567617  1 N  gxyzz             29    -17.364108  1 N  dzz        

 Vector  197  Occ=0.000000D+00  E= 2.051456D+01
              MO Center=  6.9D-03,  1.4D-02, -8.2D-03, r^2= 4.8D-01
   Bfn.  Coefficient  Atom+Function         Bfn.  Coefficient  Atom+Function  
  ----- ------------  ---------------      ----- ------------  ---------------
    28     44.921784  1 N  dyz               26     39.000381  1 N  dxz        
    27     38.846366  1 N  dyy               29    -26.309867  1 N  dzz        
   177     24.770961  5 H  s                185     24.781930  5 H  pz         
    69    -23.957371  1 N  gyzzz             67    -23.508134  1 N  gyyyz      
    60    -23.134932  1 N  gxxyz            142    -22.735346  4 H  s          

 Vector  198  Occ=0.000000D+00  E= 2.051462D+01
              MO Center=  1.1D-02, -1.0D-03,  9.5D-03, r^2= 4.8D-01
   Bfn.  Coefficient  Atom+Function         Bfn.  Coefficient  Atom+Function  
  ----- ------------  ---------------      ----- ------------  ---------------
    25     45.064502  1 N  dxy               28     39.632494  1 N  dyz        
    29     36.185017  1 N  dzz               24    -34.444817  1 N  dxx        
    62    -24.253419  1 N  gxyyy             64    -23.973773  1 N  gxyzz      
   107     23.501286  3 H  s                 57    -23.105749  1 N  gxxxy      
   142    -22.936253  4 H  s                114     21.715890  3 H  py         

 Vector  199  Occ=0.000000D+00  E= 2.051463D+01
              MO Center= -1.8D-02, -1.3D-02, -1.7D-03, r^2= 4.8D-01
   Bfn.  Coefficient  Atom+Function         Bfn.  Coefficient  Atom+Function  
  ----- ------------  ---------------      ----- ------------  ---------------
    25     55.800736  1 N  dxy               28     40.878647  1 N  dyz        
    24     34.292658  1 N  dxx               57    -29.478874  1 N  gxxxy      
    62    -29.440658  1 N  gxyyy             64    -28.860511  1 N  gxyzz      
    72    -27.040281  2 H  s                 78    -26.551569  2 H  px         
    29    -24.247818  1 N  dzz               67    -21.586344  1 N  gyyyz      

 Vector  200  Occ=0.000000D+00  E= 2.868939D+01
              MO Center=  1.3D-05,  5.5D-06, -2.6D-06, r^2= 2.9D-01
   Bfn.  Coefficient  Atom+Function         Bfn.  Coefficient  Atom+Function  
  ----- ------------  ---------------      ----- ------------  ---------------
     2     18.434175  1 N  s                 61    -18.001725  1 N  gxxzz      
    59    -17.505566  1 N  gxxyy             68    -17.534575  1 N  gyyzz      
     1     11.687731  1 N  s                 24     10.151274  1 N  dxx        
    27     10.147117  1 N  dyy               29     10.150785  1 N  dzz        
    18     -9.711540  1 N  dxx               21     -9.711387  1 N  dyy        

 Vector  201  Occ=0.000000D+00  E= 3.015093D+01
              MO Center= -1.7D-02, -7.3D-03,  5.9D-03, r^2= 2.1D-01
   Bfn.  Coefficient  Atom+Function         Bfn.  Coefficient  Atom+Function  
  ----- ------------  ---------------      ----- ------------  ---------------
     9     37.321510  1 N  px                72     23.789150  2 H  s          
    41    -12.728174  1 N  fxzz             107    -12.210024  3 H  s          
    39    -11.456750  1 N  fxyy              36    -11.078332  1 N  fxxx       
    24     -9.867056  1 N  dxx               25     -9.107946  1 N  dxy        
   142     -7.405636  4 H  s                 12     -7.299116  1 N  px         

 Vector  202  Occ=0.000000D+00  E= 3.015101D+01
              MO Center=  5.2D-03,  1.1D-02, -1.5D-02, r^2= 2.1D-01
   Bfn.  Coefficient  Atom+Function         Bfn.  Coefficient  Atom+Function  
  ----- ------------  ---------------      ----- ------------  ---------------
    11     37.294207  1 N  pz               177     23.049781  5 H  s          
   142    -14.888031  4 H  s                 38    -12.805630  1 N  fxxz       
    28     11.650339  1 N  dyz               43    -11.353304  1 N  fyyz       
    45    -11.073014  1 N  fzzz              29     -9.196005  1 N  dzz        
    14     -7.294744  1 N  pz                27      6.155208  1 N  dyy        

 Vector  203  Occ=0.000000D+00  E= 3.015143D+01
              MO Center=  1.2D-02, -3.4D-03,  9.1D-03, r^2= 2.1D-01
   Bfn.  Coefficient  Atom+Function         Bfn.  Coefficient  Atom+Function  
  ----- ------------  ---------------      ----- ------------  ---------------
    10     37.268960  1 N  py               107     20.397485  3 H  s          
   142    -17.606922  4 H  s                 25     13.840597  1 N  dxy        
    42    -11.518119  1 N  fyyy              44    -11.431048  1 N  fyzz       
    28     11.323555  1 N  dyz               37    -11.351438  1 N  fxxy       
    13     -7.295979  1 N  py               177     -6.662007  5 H  s          

 Vector  204  Occ=0.000000D+00  E= 3.518162D+01
              MO Center=  1.5D-03,  8.9D-05,  1.5D-03, r^2= 5.8D-01
   Bfn.  Coefficient  Atom+Function         Bfn.  Coefficient  Atom+Function  
  ----- ------------  ---------------      ----- ------------  ---------------
     5    -10.505003  1 N  s                  4      9.984713  1 N  s          
    72      7.660862  2 H  s                107      7.634196  3 H  s          
   142      7.630778  4 H  s                177      7.661765  5 H  s          
    61     -6.319347  1 N  gxxzz             59     -5.863942  1 N  gxxyy      
    68     -5.892612  1 N  gyyzz            106     -4.572328  3 H  s          

 Vector  205  Occ=0.000000D+00  E= 3.628111D+01
              MO Center= -1.3D-01, -6.2D-02,  9.7D-02, r^2= 5.4D-01
   Bfn.  Coefficient  Atom+Function         Bfn.  Coefficient  Atom+Function  
  ----- ------------  ---------------      ----- ------------  ---------------
    12     36.354118  1 N  px                14     18.490479  1 N  pz         
    51    -17.940759  1 N  fxzz              73     17.227656  2 H  s          
    46    -13.730008  1 N  fxxx              49    -12.555092  1 N  fxyy       
   108    -12.287165  3 H  s                  9    -11.448525  1 N  px         
   143    -11.108572  4 H  s                 48    -10.712533  1 N  fxxz       

 Vector  206  Occ=0.000000D+00  E= 3.628136D+01
              MO Center= -7.0D-02,  9.7D-02, -2.6D-01, r^2= 4.9D-01
   Bfn.  Coefficient  Atom+Function         Bfn.  Coefficient  Atom+Function  
  ----- ------------  ---------------      ----- ------------  ---------------
    14     36.298962  1 N  pz               178     19.667176  5 H  s          
    12    -18.510759  1 N  px                48    -16.549122  1 N  fxxz       
    53    -15.554837  1 N  fyyz              55    -13.157960  1 N  fzzz       
    73    -12.524731  2 H  s                 11    -11.432714  1 N  pz         
    49      9.935208  1 N  fxyy              28      9.321244  1 N  dyz        

 Vector  207  Occ=0.000000D+00  E= 3.628195D+01
              MO Center=  2.0D-01, -3.4D-02,  1.6D-01, r^2= 5.0D-01
   Bfn.  Coefficient  Atom+Function         Bfn.  Coefficient  Atom+Function  
  ----- ------------  ---------------      ----- ------------  ---------------
    13     40.749403  1 N  py               108     17.509514  3 H  s          
    52    -16.254329  1 N  fyyy             143    -16.138685  4 H  s          
    54    -15.894526  1 N  fyzz              47    -15.690764  1 N  fxxy       
    10    -12.836187  1 N  py                25     12.466714  1 N  dxy        
    28     10.714879  1 N  dyz               79      8.128741  2 H  py         

 Vector  208  Occ=0.000000D+00  E= 9.653877D+01
              MO Center=  5.1D-05,  3.3D-06,  4.5D-05, r^2= 1.8D-01
   Bfn.  Coefficient  Atom+Function         Bfn.  Coefficient  Atom+Function  
  ----- ------------  ---------------      ----- ------------  ---------------
     2     55.600067  1 N  s                  1     42.783956  1 N  s          
     4     21.570910  1 N  s                 24    -16.323719  1 N  dxx        
    27    -16.284315  1 N  dyy               29    -16.324535  1 N  dzz        
     3    -15.680139  1 N  s                 78     12.475483  2 H  px         
   185     12.513084  5 H  pz               114     10.297722  3 H  py         


------------------------------------------------------------
EAF file 0: "./nh4_cc-pvqz.aoints.0" size=3059220480 bytes
------------------------------------------------------------
               write      read    awrite     aread      wait
               -----      ----    ------     -----      ----
     calls:     5835        13         0     75842     75842
   data(b): 3.06e+09  6.82e+06  0.00e+00  3.98e+10
   time(s): 0.00e+00  0.00e+00  0.00e+00  0.00e+00  0.00e+00
rate(mb/s): 0.00e+00  0.00e+00
------------------------------------------------------------


 center of mass
 --------------
 x =   0.00000648 y =  -0.00000000 z =   0.00000310

 moments of inertia (a.u.)
 ------------------
           2.832521394825          -0.000012864290          -0.000000000000
          -0.000012864290           2.832241174170           0.000000000000
          -0.000000000000           0.000000000000           2.832431450044

     Multipole analysis of the density
     ---------------------------------

     L   x y z        total         alpha         beta         nuclear
     -   - - -        -----         -----         ----         -------
     0   0 0 0      1.000000     -5.000000     -5.000000     11.000000

     1   1 0 0     -0.000047     -0.000023     -0.000023      0.000000
     1   0 1 0      0.000000      0.000000      0.000000     -0.000000
     1   0 0 1     -0.000022     -0.000011     -0.000011      0.000000

     2   2 0 0     -3.111601     -2.258341     -2.258341      1.405081
     2   1 1 0      0.000007     -0.000003     -0.000003      0.000013
     2   1 0 1     -0.000001     -0.000001     -0.000001     -0.000000
     2   0 2 0     -3.111438     -2.258398     -2.258398      1.405359
     2   0 1 1     -0.000004     -0.000002     -0.000002     -0.000000
     2   0 0 2     -3.111554     -2.258362     -2.258362      1.405170


 Parallel integral file used    5835 records with       0 large values


 Task  times  cpu:      285.6s     wall:      285.6s
 Summary of allocated global arrays
-----------------------------------
  No active global arrays



                         GA Statistics for process    0
                         ------------------------------

       create   destroy   get      put      acc     scatter   gather  read&inc
calls:  204      204     4.23e+04 9129     2.48e+04    0        0      461     
number of processes/call 0.00e+00 0.00e+00 0.00e+00 0.00e+00 0.00e+00
bytes total:             6.24e+08 7.71e+07 4.04e+08 0.00e+00 0.00e+00 3.69e+03
bytes remote:            0.00e+00 0.00e+00 0.00e+00 0.00e+00 0.00e+00 0.00e+00
Max memory consumed for GA by this process: 13759200 bytes
MA_summarize_allocated_blocks: starting scan ...
MA_summarize_allocated_blocks: scan completed: 0 heap blocks, 0 stack blocks
MA usage statistics:

	allocation statistics:
					      heap	     stack
					      ----	     -----
	current number of blocks	         0	         0
	maximum number of blocks	        20	        53
	current total bytes		         0	         0
	maximum total bytes		   3676792	  44924776
	maximum total K-bytes		      3677	     44925
	maximum total M-bytes		         4	        45


                                NWChem Input Module
                                -------------------





                                     CITATION
                                     --------
                Please cite the following reference when publishing
                           results obtained with NWChem:

                 M. Valiev, E.J. Bylaska, N. Govind, K. Kowalski,
              T.P. Straatsma, H.J.J. van Dam, D. Wang, J. Nieplocha,
                        E. Apra, T.L. Windus, W.A. de Jong
                 "NWChem: a comprehensive and scalable open-source
                  solution for large scale molecular simulations"
                      Comput. Phys. Commun. 181, 1477 (2010)
                           doi:10.1016/j.cpc.2010.04.018

                                      AUTHORS
                                      -------
     E. Apra, E. J. Bylaska, N. Govind, K. Kowalski, M. Valiev, W. A. de Jong,
      T. P. Straatsma, H. J. J. van Dam, D. Wang, T. L. Windus, N. P. Bauman,
       A. Panyala, J. Hammond, J. Autschbach, K. Bhaskaran-Nair, J. Brabec,
    K. Lopata, S. A. Fischer, S. Krishnamoorthy, M. Jacquelin, W. Ma, M. Klemm,
       O. Villa, Y. Chen, V. Anisimov, F. Aquino, S. Hirata, M. T. Hackler,
           Eric Hermes, L. Jensen, J. E. Moore, J. C. Becca, V. Konjkov,
            D. Mejia-Rodriguez, T. Risthaus, M. Malagoli, A. Marenich,
   A. Otero-de-la-Roza, J. Mullin, P. Nichols, R. Peverati, J. Pittner, Y. Zhao,
        P.-D. Fan, A. Fonari, M. J. Williamson, R. J. Harrison, J. R. Rehr,
      M. Dupuis, D. Silverstein, D. M. A. Smith, J. Nieplocha, V. Tipparaju,
      M. Krishnan, B. E. Van Kuiken, A. Vazquez-Mayagoitia, M. Swart, Q. Wu,
   T. Van Voorhis, A. A. Auer, M. Nooijen, L. D. Crosby, E. Brown, G. Cisneros,
     G. I. Fann, H. Fruchtl, J. Garza, K. Hirao, R. A. Kendall, J. A. Nichols,
       K. Tsemekhman, K. Wolinski, J. Anchell, D. E. Bernholdt, P. Borowski,
       T. Clark, D. Clerc, H. Dachsel, M. J. O. Deegan, K. Dyall, D. Elwood,
      E. Glendening, M. Gutowski, A. C. Hess, J. Jaffe, B. G. Johnson, J. Ju,
        R. Kobayashi, R. Kutteh, Z. Lin, R. Littlefield, X. Long, B. Meng,
      T. Nakajima, S. Niu, L. Pollack, M. Rosing, K. Glaesemann, G. Sandrone,
      M. Stave, H. Taylor, G. Thomas, J. H. van Lenthe, A. T. Wong, Z. Zhang.

 Total times  cpu:      285.7s     wall:      285.7s
